ATOM      1  N   THR     2      -9.618 -60.420  22.368  1.00  0.00     0.097 N 
ATOM      2  C   THR     2      -9.369 -59.307  23.282  1.00  0.00    -0.092 C 
ATOM      3  C   THR     2      -8.317 -58.332  22.752  1.00  0.00    -0.287 C 
ATOM      4  O   THR     2      -7.210 -58.722  22.351  1.00  0.00     0.158 OA
ATOM      5  C   THR     2      -8.984 -59.818  24.666  1.00  0.00     0.007 C 
ATOM      6  C   GLY     3      -6.745 -55.670  23.234  1.00  0.00    -0.287 C 
ATOM      7  O   GLY     3      -6.894 -55.844  24.447  1.00  0.00     0.158 OA
ATOM      8  N   GLY     3      -8.700 -57.062  22.733  1.00  0.00     0.222 N 
ATOM      9  C   GLY     3      -7.852 -55.988  22.258  1.00  0.00    -0.094 C 
ATOM     10  C   LEU     4      -1.265 -55.256  23.398  1.00  0.00     0.000 C 
ATOM     11  N   LEU     4      -5.622 -55.201  22.689  1.00  0.00     0.222 N 
ATOM     12  C   LEU     4      -1.149 -53.304  21.863  1.00  0.00     0.000 C 
ATOM     13  C   LEU     4      -4.434 -54.804  23.417  1.00  0.00    -0.102 C 
ATOM     14  O   LEU     4      -4.172 -53.632  25.476  1.00  0.00     0.158 OA
ATOM     15  C   LEU     4      -4.760 -53.678  24.398  1.00  0.00    -0.286 C 
ATOM     16  C   LEU     4      -3.370 -54.335  22.393  1.00  0.00     0.008 C 
ATOM     17  C   LEU     4      -1.974 -54.011  22.915  1.00  0.00    -0.000 C 
ATOM     18  C   LEU     5      -6.050 -51.616  24.841  1.00  0.00    -0.102 C 
ATOM     19  N   LEU     5      -5.694 -52.778  24.022  1.00  0.00     0.222 N 
ATOM     20  C   LEU     5      -7.483 -51.666  25.354  1.00  0.00    -0.286 C 
ATOM     21  O   LEU     5      -8.086 -50.628  25.635  1.00  0.00     0.158 OA
ATOM     22  C   LEU     5      -5.771 -50.316  24.051  1.00  0.00     0.008 C 
ATOM     23  C   LEU     5      -4.320 -50.103  23.587  1.00  0.00    -0.000 C 
ATOM     24  C   LEU     5      -4.224 -48.954  22.629  1.00  0.00     0.000 C 
ATOM     25  C   LEU     5      -3.405 -49.867  24.761  1.00  0.00     0.000 C 
ATOM     26  N   ASP     6      -8.007 -52.889  25.509  1.00  0.00     0.222 N 
ATOM     27  C   ASP     6      -9.360 -53.167  25.965  1.00  0.00    -0.103 C 
ATOM     28  C   ASP     6      -9.638 -52.480  27.300  1.00  0.00    -0.286 C 
ATOM     29  O   ASP     6      -8.903 -52.694  28.263  1.00  0.00     0.158 OA
ATOM     30  O   ASP     6     -10.747 -56.562  25.257  1.00  0.00     0.162 OA
ATOM     31  O   ASP     6     -10.886 -54.675  24.122  1.00  0.00     0.162 OA
ATOM     32  C   ASP     6      -9.547 -54.687  26.102  1.00  0.00     0.032 C 
ATOM     33  C   ASP     6     -10.464 -55.354  25.091  1.00  0.00    -0.347 C 
ATOM     34  O   GLY     7     -10.518 -48.999  29.836  1.00  0.00     0.158 OA
ATOM     35  N   GLY     7     -10.666 -51.631  27.325  1.00  0.00     0.222 N 
ATOM     36  C   GLY     7     -11.071 -50.907  28.527  1.00  0.00    -0.094 C 
ATOM     37  C   GLY     7     -10.252 -49.667  28.838  1.00  0.00    -0.287 C 
ATOM     38  C   LYS     8      -6.270 -49.418  28.632  1.00  0.00    -0.001 C 
ATOM     39  C   LYS     8      -4.820 -49.674  28.270  1.00  0.00     0.008 C 
ATOM     40  C   LYS     8      -6.968 -48.364  27.774  1.00  0.00     0.008 C 
ATOM     41  C   LYS     8      -4.246 -50.803  29.105  1.00  0.00    -0.105 C 
ATOM     42  N   LYS     8      -4.111 -50.444  30.546  1.00  0.00     0.097 N 
ATOM     43  C   LYS     8      -9.047 -46.890  27.637  1.00  0.00    -0.286 C 
ATOM     44  O   LYS     8      -9.594 -46.919  26.538  1.00  0.00     0.158 OA
ATOM     45  C   LYS     8      -8.434 -48.152  28.229  1.00  0.00    -0.102 C 
ATOM     46  N   LYS     8      -9.255 -49.335  27.993  1.00  0.00     0.222 N 
ATOM     47  C   ARG     9     -11.598 -44.338  29.306  1.00  0.00     0.008 C 
ATOM     48  C   ARG     9     -12.331 -43.762  30.492  1.00  0.00    -0.114 C 
ATOM     49  O   ARG     9      -7.295 -43.507  28.412  1.00  0.00     0.158 OA
ATOM     50  C   ARG     9      -8.205 -43.693  27.597  1.00  0.00    -0.286 C 
ATOM     51  C   ARG     9     -10.196 -43.788  29.157  1.00  0.00     0.007 C 
ATOM     52  C   ARG     9     -13.852 -45.456  31.466  1.00  0.00    -0.341 C 
ATOM     53  N   ARG     9      -8.994 -45.797  28.403  1.00  0.00     0.222 N 
ATOM     54  N   ARG     9     -13.632 -44.412  30.669  1.00  0.00     0.225 N 
ATOM     55  N   ARG     9     -12.854 -45.997  32.158  1.00  0.00     0.111 N 
ATOM     56  C   ARG     9      -9.455 -44.467  28.006  1.00  0.00    -0.102 C 
ATOM     57  N   ARG     9     -15.074 -45.964  31.582  1.00  0.00     0.111 N 
ATOM     58  C   ILE    10      -4.831 -43.073  24.243  1.00  0.00    -0.000 C 
ATOM     59  O   ILE    10      -8.022 -41.351  24.176  1.00  0.00     0.158 OA
ATOM     60  C   ILE    10      -5.345 -46.217  24.858  1.00  0.00     0.000 C 
ATOM     61  C   ILE    10      -6.898 -42.719  25.767  1.00  0.00    -0.102 C 
ATOM     62  C   ILE    10      -7.170 -41.402  25.054  1.00  0.00    -0.286 C 
ATOM     63  C   ILE    10      -5.691 -44.994  25.694  1.00  0.00    -0.000 C 
ATOM     64  N   ILE    10      -8.104 -43.352  26.300  1.00  0.00     0.222 N 
ATOM     65  C   ILE    10      -6.087 -43.730  24.885  1.00  0.00     0.008 C 
ATOM     66  C   LEU    11      -6.457 -36.474  25.069  1.00  0.00    -0.000 C 
ATOM     67  C   LEU    11      -5.507 -39.053  23.563  1.00  0.00    -0.286 C 
ATOM     68  C   LEU    11      -5.130 -35.907  24.505  1.00  0.00     0.000 C 
ATOM     69  O   LEU    11      -4.328 -39.349  23.777  1.00  0.00     0.158 OA
ATOM     70  C   LEU    11      -6.517 -39.056  24.722  1.00  0.00    -0.102 C 
ATOM     71  C   LEU    11      -6.253 -37.877  25.677  1.00  0.00     0.008 C 
ATOM     72  C   LEU    11      -7.049 -35.533  26.084  1.00  0.00     0.000 C 
ATOM     73  N   LEU    11      -6.414 -40.345  25.403  1.00  0.00     0.222 N 
ATOM     74  O   VAL    12      -6.243 -36.830  20.054  1.00  0.00     0.158 OA
ATOM     75  C   VAL    12      -5.419 -39.763  20.102  1.00  0.00     0.008 C 
ATOM     76  C   VAL    12      -5.192 -37.245  20.532  1.00  0.00    -0.286 C 
ATOM     77  N   VAL    12      -5.969 -38.710  22.349  1.00  0.00     0.222 N 
ATOM     78  C   VAL    12      -5.119 -38.647  21.157  1.00  0.00    -0.102 C 
ATOM     79  C   VAL    12      -5.311 -41.163  20.712  1.00  0.00    -0.000 C 
ATOM     80  C   VAL    12      -4.488 -39.641  18.890  1.00  0.00    -0.000 C 
ATOM     81  C   SER    13      -3.235 -35.349  18.601  1.00  0.00    -0.287 C 
ATOM     82  C   SER    13      -3.932 -35.198  19.950  1.00  0.00    -0.089 C 
ATOM     83  C   SER    13      -3.076 -34.303  20.846  1.00  0.00    -0.156 C 
ATOM     84  O   SER    13      -1.711 -34.692  20.893  1.00  0.00     0.152 OA
ATOM     85  O   SER    13      -2.655 -36.404  18.342  1.00  0.00     0.158 OA
ATOM     86  N   SER    13      -4.067 -36.526  20.552  1.00  0.00     0.222 N 
ATOM     87  O   GLY    14      -2.428 -34.721  14.228  1.00  0.00     0.158 OA
ATOM     88  C   GLY    14      -2.476 -34.257  16.549  1.00  0.00    -0.094 C 
ATOM     89  N   GLY    14      -3.254 -34.293  17.784  1.00  0.00     0.222 N 
ATOM     90  C   GLY    14      -3.116 -34.688  15.253  1.00  0.00    -0.287 C 
ATOM     91  C   ILE    15      -6.347 -36.218  14.086  1.00  0.00     0.008 C 
ATOM     92  C   ILE    15      -5.353 -33.997  13.256  1.00  0.00    -0.286 C 
ATOM     93  O   ILE    15      -5.912 -33.084  13.872  1.00  0.00     0.158 OA
ATOM     94  C   ILE    15      -7.019 -36.416  12.697  1.00  0.00    -0.000 C 
ATOM     95  C   ILE    15      -5.060 -35.323  13.967  1.00  0.00    -0.102 C 
ATOM     96  C   ILE    15      -7.251 -38.415  15.234  1.00  0.00     0.000 C 
ATOM     97  C   ILE    15      -6.022 -37.586  14.732  1.00  0.00    -0.000 C 
ATOM     98  N   ILE    15      -4.430 -34.993  15.252  1.00  0.00     0.222 N 
ATOM     99  N   ILE    16      -4.928 -33.889  11.985  1.00  0.00     0.222 N 
ATOM    100  C   ILE    16      -5.228 -32.764  11.095  1.00  0.00    -0.102 C 
ATOM    101  C   ILE    16      -4.122 -31.676  10.950  1.00  0.00     0.008 C 
ATOM    102  C   ILE    16      -4.655 -30.385  10.251  1.00  0.00    -0.000 C 
ATOM    103  C   ILE    16      -5.807 -29.585  11.010  1.00  0.00     0.000 C 
ATOM    104  C   ILE    16      -2.835 -32.210  10.290  1.00  0.00    -0.000 C 
ATOM    105  O   ILE    16      -6.789 -32.737   9.277  1.00  0.00     0.158 OA
ATOM    106  C   ILE    16      -5.812 -33.291   9.781  1.00  0.00    -0.286 C 
ATOM    107  C   THR    17      -4.757 -33.147   6.571  1.00  0.00     0.012 C 
ATOM    108  N   THR    17      -5.230 -34.381   9.249  1.00  0.00     0.222 N 
ATOM    109  C   THR    17      -5.689 -35.056   8.030  1.00  0.00    -0.089 C 
ATOM    110  O   THR    17      -3.593 -35.262   6.814  1.00  0.00     0.152 OA
ATOM    111  C   THR    17      -5.671 -36.573   8.250  1.00  0.00    -0.287 C 
ATOM    112  O   THR    17      -5.209 -37.043   9.291  1.00  0.00     0.158 OA
ATOM    113  C   THR    17      -4.873 -34.652   6.774  1.00  0.00    -0.169 C 
ATOM    114  C   ASP    18      -6.193 -38.791   7.271  1.00  0.00    -0.103 C 
ATOM    115  C   ASP    18      -4.799 -39.421   7.128  1.00  0.00    -0.286 C 
ATOM    116  C   ASP    18      -7.158 -39.314   6.199  1.00  0.00     0.032 C 
ATOM    117  O   ASP    18      -6.094 -39.576   4.089  1.00  0.00     0.162 OA
ATOM    118  O   ASP    18      -4.659 -40.625   7.347  1.00  0.00     0.158 OA
ATOM    119  O   ASP    18      -7.131 -37.682   4.475  1.00  0.00     0.162 OA
ATOM    120  C   ASP    18      -6.799 -38.836   4.805  1.00  0.00    -0.347 C 
ATOM    121  N   ASP    18      -6.156 -37.331   7.258  1.00  0.00     0.222 N 
ATOM    122  O   SER    19      -1.630 -37.280   5.337  1.00  0.00     0.152 OA
ATOM    123  C   SER    19      -1.699 -38.693   5.421  1.00  0.00    -0.156 C 
ATOM    124  O   SER    19      -0.437 -39.253   8.110  1.00  0.00     0.158 OA
ATOM    125  C   SER    19      -1.577 -38.786   7.970  1.00  0.00    -0.287 C 
ATOM    126  C   SER    19      -2.399 -39.138   6.706  1.00  0.00    -0.089 C 
ATOM    127  N   SER    19      -3.771 -38.625   6.780  1.00  0.00     0.222 N 
ATOM    128  C   SER    20      -2.446 -36.895  11.125  1.00  0.00    -0.156 C 
ATOM    129  O   SER    20      -1.920 -39.946  10.832  1.00  0.00     0.158 OA
ATOM    130  C   SER    20      -1.145 -38.992  10.890  1.00  0.00    -0.287 C 
ATOM    131  C   SER    20      -1.512 -37.681  10.193  1.00  0.00    -0.089 C 
ATOM    132  N   SER    20      -2.170 -38.012   8.920  1.00  0.00     0.222 N 
ATOM    133  O   SER    20      -2.702 -35.568  10.689  1.00  0.00     0.152 OA
ATOM    134  C   ILE    21       4.397 -39.623  12.199  1.00  0.00     0.000 C 
ATOM    135  C   ILE    21       2.203 -41.057  13.965  1.00  0.00    -0.000 C 
ATOM    136  C   ILE    21       2.953 -40.084  11.747  1.00  0.00    -0.000 C 
ATOM    137  C   ILE    21       0.458 -40.242  12.263  1.00  0.00    -0.102 C 
ATOM    138  N   ILE    21       0.050 -39.061  11.491  1.00  0.00     0.222 N 
ATOM    139  C   ILE    21      -0.614 -40.525  13.357  1.00  0.00    -0.286 C 
ATOM    140  C   ILE    21       1.881 -40.037  12.861  1.00  0.00     0.008 C 
ATOM    141  O   ILE    21      -0.975 -41.687  13.578  1.00  0.00     0.158 OA
ATOM    142  N   ALA    22      -1.156 -39.454  13.983  1.00  0.00     0.222 N 
ATOM    143  C   ALA    22      -2.168 -39.579  15.034  1.00  0.00    -0.102 C 
ATOM    144  C   ALA    22      -3.475 -40.182  14.540  1.00  0.00    -0.286 C 
ATOM    145  C   ALA    22      -2.417 -38.248  15.716  1.00  0.00     0.007 C 
ATOM    146  O   ALA    22      -4.156 -40.810  15.338  1.00  0.00     0.158 OA
ATOM    147  C   PHE    23      -9.079 -41.877   9.954  1.00  0.00     0.000 C 
ATOM    148  C   PHE    23      -7.923 -42.603   9.760  1.00  0.00    -0.000 C 
ATOM    149  C   PHE    23      -9.019 -40.628  10.531  1.00  0.00    -0.000 C 
ATOM    150  C   PHE    23      -7.789 -40.109  10.954  1.00  0.00     0.000 C 
ATOM    151  C   PHE    23      -6.688 -42.070  10.147  1.00  0.00     0.000 C 
ATOM    152  C   PHE    23      -6.609 -40.813  10.743  1.00  0.00    -0.000 C 
ATOM    153  C   PHE    23      -5.285 -40.267  11.227  1.00  0.00     0.008 C 
ATOM    154  O   PHE    23      -5.767 -42.910  13.203  1.00  0.00     0.158 OA
ATOM    155  C   PHE    23      -4.843 -42.210  12.785  1.00  0.00    -0.286 C 
ATOM    156  C   PHE    23      -5.007 -40.690  12.690  1.00  0.00    -0.102 C 
ATOM    157  N   PHE    23      -3.800 -40.057  13.229  1.00  0.00     0.222 N 
ATOM    158  N   HIS    24      -2.988 -44.285   8.046  1.00  0.00     0.218 N 
ATOM    159  C   HIS    24      -2.574 -43.045   8.298  1.00  0.00    -0.225 C 
ATOM    160  C   HIS    24      -2.868 -44.999   9.213  1.00  0.00    -0.106 C 
ATOM    161  N   HIS    24      -2.191 -42.911   9.557  1.00  0.00     0.219 N 
ATOM    162  O   HIS    24      -3.612 -45.753  14.136  1.00  0.00     0.158 OA
ATOM    163  C   HIS    24      -2.357 -44.157  10.134  1.00  0.00    -0.114 C 
ATOM    164  C   HIS    24      -2.066 -44.391  11.582  1.00  0.00     0.016 C 
ATOM    165  C   HIS    24      -3.173 -44.638  13.863  1.00  0.00    -0.286 C 
ATOM    166  C   HIS    24      -3.305 -44.121  12.436  1.00  0.00    -0.102 C 
ATOM    167  N   HIS    24      -3.657 -42.701  12.403  1.00  0.00     0.222 N 
ATOM    168  C   ILE    25      -1.990 -43.310  18.572  1.00  0.00    -0.000 C 
ATOM    169  C   ILE    25       0.424 -41.751  17.232  1.00  0.00     0.000 C 
ATOM    170  C   ILE    25      -0.305 -43.013  16.684  1.00  0.00    -0.000 C 
ATOM    171  O   ILE    25      -4.280 -45.369  17.383  1.00  0.00     0.158 OA
ATOM    172  C   ILE    25      -1.808 -43.083  17.061  1.00  0.00     0.008 C 
ATOM    173  N   ILE    25      -2.640 -43.812  14.783  1.00  0.00     0.222 N 
ATOM    174  C   ILE    25      -3.999 -44.360  16.725  1.00  0.00    -0.286 C 
ATOM    175  C   ILE    25      -2.569 -44.159  16.219  1.00  0.00    -0.102 C 
ATOM    176  N   ALA    26      -4.905 -43.410  16.395  1.00  0.00     0.222 N 
ATOM    177  C   ALA    26      -6.309 -43.462  16.821  1.00  0.00    -0.102 C 
ATOM    178  C   ALA    26      -7.029 -42.180  16.434  1.00  0.00     0.007 C 
ATOM    179  O   ALA    26      -7.755 -45.337  17.005  1.00  0.00     0.158 OA
ATOM    180  C   ALA    26      -7.045 -44.681  16.261  1.00  0.00    -0.286 C 
ATOM    181  C   ARG    27      -4.909 -48.094  10.491  1.00  0.00    -0.341 C 
ATOM    182  N   ARG    27      -5.237 -49.314  10.894  1.00  0.00     0.111 N 
ATOM    183  N   ARG    27      -3.639 -47.809  10.272  1.00  0.00     0.111 N 
ATOM    184  N   ARG    27      -5.842 -47.155  10.352  1.00  0.00     0.225 N 
ATOM    185  C   ARG    27      -7.302 -47.366  10.538  1.00  0.00    -0.114 C 
ATOM    186  C   ARG    27      -7.775 -47.288  11.990  1.00  0.00     0.008 C 
ATOM    187  C   ARG    27      -7.089 -46.177  12.795  1.00  0.00     0.007 C 
ATOM    188  O   ARG    27      -7.920 -48.225  15.416  1.00  0.00     0.158 OA
ATOM    189  C   ARG    27      -7.043 -47.487  14.972  1.00  0.00    -0.286 C 
ATOM    190  C   ARG    27      -7.441 -46.169  14.299  1.00  0.00    -0.102 C 
ATOM    191  N   ARG    27      -6.818 -45.020  14.973  1.00  0.00     0.222 N 
ATOM    192  C   VAL    28      -3.602 -49.011  15.507  1.00  0.00     0.008 C 
ATOM    193  C   VAL    28      -2.995 -50.204  16.241  1.00  0.00    -0.000 C 
ATOM    194  C   VAL    28      -3.240 -49.080  14.021  1.00  0.00    -0.000 C 
ATOM    195  O   VAL    28      -6.045 -50.153  17.574  1.00  0.00     0.158 OA
ATOM    196  C   VAL    28      -5.612 -49.069  17.165  1.00  0.00    -0.286 C 
ATOM    197  C   VAL    28      -5.156 -48.949  15.697  1.00  0.00    -0.102 C 
ATOM    198  N   VAL    28      -5.728 -47.753  15.069  1.00  0.00     0.222 N 
ATOM    199  N   ALA    29      -5.594 -47.950  17.930  1.00  0.00     0.222 N 
ATOM    200  C   ALA    29      -6.043 -47.961  19.332  1.00  0.00    -0.102 C 
ATOM    201  C   ALA    29      -7.502 -48.405  19.430  1.00  0.00    -0.286 C 
ATOM    202  O   ALA    29      -7.799 -49.281  20.242  1.00  0.00     0.158 OA
ATOM    203  C   ALA    29      -5.846 -46.600  19.986  1.00  0.00     0.007 C 
ATOM    204  N   GLN    30      -8.391 -47.869  18.557  1.00  0.00     0.222 N 
ATOM    205  C   GLN    30      -9.806 -48.257  18.518  1.00  0.00    -0.102 C 
ATOM    206  C   GLN    30      -9.968 -49.709  18.064  1.00  0.00    -0.286 C 
ATOM    207  O   GLN    30     -10.795 -50.417  18.617  1.00  0.00     0.158 OA
ATOM    208  O   GLN    30     -11.978 -45.410  16.191  1.00  0.00     0.158 OA
ATOM    209  C   GLN    30     -11.810 -45.132  17.382  1.00  0.00    -0.286 C 
ATOM    210  C   GLN    30     -10.609 -47.325  17.614  1.00  0.00     0.007 C 
ATOM    211  C   GLN    30     -11.041 -46.041  18.302  1.00  0.00     0.020 C 
ATOM    212  N   GLN    30     -12.302 -44.023  17.920  1.00  0.00     0.108 N 
ATOM    213  O   GLU    31      -9.373 -53.592  17.943  1.00  0.00     0.158 OA
ATOM    214  C   GLU    31      -8.193 -51.809  15.515  1.00  0.00     0.007 C 
ATOM    215  O   GLU    31      -7.734 -50.529  12.095  1.00  0.00     0.162 OA
ATOM    216  O   GLU    31      -6.372 -51.604  13.448  1.00  0.00     0.162 OA
ATOM    217  C   GLU    31      -7.498 -51.130  13.165  1.00  0.00    -0.347 C 
ATOM    218  N   GLU    31      -9.147 -50.173  17.092  1.00  0.00     0.222 N 
ATOM    219  C   GLU    31      -9.183 -51.573  16.648  1.00  0.00    -0.102 C 
ATOM    220  C   GLU    31      -8.834 -52.486  17.829  1.00  0.00    -0.286 C 
ATOM    221  C   GLU    31      -8.627 -51.255  14.169  1.00  0.00     0.024 C 
ATOM    222  N   GLN    32      -5.606 -54.811  17.598  1.00  0.00     0.108 N 
ATOM    223  O   GLN    32      -5.505 -55.358  19.775  1.00  0.00     0.158 OA
ATOM    224  C   GLN    32      -5.435 -54.500  18.875  1.00  0.00    -0.286 C 
ATOM    225  N   GLN    32      -7.991 -51.970  18.745  1.00  0.00     0.222 N 
ATOM    226  C   GLN    32      -7.536 -52.653  19.952  1.00  0.00    -0.102 C 
ATOM    227  C   GLN    32      -5.134 -53.038  19.157  1.00  0.00     0.020 C 
ATOM    228  C   GLN    32      -6.040 -52.388  20.200  1.00  0.00     0.007 C 
ATOM    229  O   GLN    32      -7.942 -52.735  22.303  1.00  0.00     0.158 OA
ATOM    230  C   GLN    32      -8.388 -52.431  21.203  1.00  0.00    -0.286 C 
ATOM    231  N   GLY    33      -9.613 -51.949  21.023  1.00  0.00     0.222 N 
ATOM    232  C   GLY    33     -10.477 -50.538  22.973  1.00  0.00    -0.287 C 
ATOM    233  C   GLY    33     -10.574 -51.779  22.110  1.00  0.00    -0.094 C 
ATOM    234  O   GLY    33     -11.211 -50.433  23.950  1.00  0.00     0.158 OA
ATOM    235  C   ALA    34      -8.210 -47.603  23.031  1.00  0.00     0.007 C 
ATOM    236  O   ALA    34     -11.192 -47.363  22.039  1.00  0.00     0.158 OA
ATOM    237  C   ALA    34     -10.690 -47.426  23.158  1.00  0.00    -0.286 C 
ATOM    238  C   ALA    34      -9.486 -48.340  23.408  1.00  0.00    -0.102 C 
ATOM    239  N   ALA    34      -9.598 -49.584  22.636  1.00  0.00     0.222 N 
ATOM    240  N   GLN    35     -15.245 -43.465  27.119  1.00  0.00     0.108 N 
ATOM    241  O   GLN    35     -14.907 -45.627  27.588  1.00  0.00     0.158 OA
ATOM    242  C   GLN    35     -14.831 -44.681  26.791  1.00  0.00    -0.286 C 
ATOM    243  C   GLN    35     -14.260 -44.848  25.396  1.00  0.00     0.020 C 
ATOM    244  C   GLN    35     -13.069 -45.793  25.388  1.00  0.00     0.007 C 
ATOM    245  C   GLN    35     -11.435 -44.365  24.069  1.00  0.00    -0.286 C 
ATOM    246  O   GLN    35     -10.679 -44.040  24.989  1.00  0.00     0.158 OA
ATOM    247  C   GLN    35     -12.182 -45.697  24.129  1.00  0.00    -0.102 C 
ATOM    248  N   GLN    35     -11.109 -46.692  24.190  1.00  0.00     0.222 N 
ATOM    249  C   LEU    36      -8.257 -43.948  21.736  1.00  0.00     0.000 C 
ATOM    250  C   LEU    36      -8.902 -43.325  19.422  1.00  0.00     0.000 C 
ATOM    251  C   LEU    36      -9.430 -43.609  20.816  1.00  0.00    -0.000 C 
ATOM    252  C   LEU    36     -10.222 -42.407  21.320  1.00  0.00     0.008 C 
ATOM    253  C   LEU    36     -10.804 -42.411  22.747  1.00  0.00    -0.102 C 
ATOM    254  O   LEU    36     -12.711 -40.983  22.758  1.00  0.00     0.158 OA
ATOM    255  C   LEU    36     -11.507 -41.091  22.949  1.00  0.00    -0.286 C 
ATOM    256  N   LEU    36     -11.594 -43.626  22.971  1.00  0.00     0.222 N 
ATOM    257  C   VAL    37     -12.360 -38.600  25.504  1.00  0.00    -0.000 C 
ATOM    258  C   VAL    37     -11.129 -38.089  24.779  1.00  0.00     0.008 C 
ATOM    259  O   VAL    37      -8.831 -38.271  22.610  1.00  0.00     0.158 OA
ATOM    260  C   VAL    37     -11.136 -36.563  24.768  1.00  0.00    -0.000 C 
ATOM    261  C   VAL    37     -10.021 -37.985  22.461  1.00  0.00    -0.286 C 
ATOM    262  C   VAL    37     -11.081 -38.660  23.341  1.00  0.00    -0.102 C 
ATOM    263  N   VAL    37     -10.707 -40.069  23.272  1.00  0.00     0.222 N 
ATOM    264  C   LEU    38      -9.500 -36.509  20.611  1.00  0.00    -0.102 C 
ATOM    265  N   LEU    38     -10.445 -37.142  21.527  1.00  0.00     0.222 N 
ATOM    266  O   LEU    38     -10.320 -34.345  21.213  1.00  0.00     0.158 OA
ATOM    267  C   LEU    38      -9.356 -35.018  20.840  1.00  0.00    -0.286 C 
ATOM    268  C   LEU    38      -9.914 -36.768  19.141  1.00  0.00     0.008 C 
ATOM    269  C   LEU    38     -10.228 -38.216  18.735  1.00  0.00    -0.000 C 
ATOM    270  C   LEU    38     -10.955 -38.252  17.418  1.00  0.00     0.000 C 
ATOM    271  C   LEU    38      -8.971 -39.081  18.680  1.00  0.00     0.000 C 
ATOM    272  C   THR    39      -7.476 -32.559  19.294  1.00  0.00    -0.287 C 
ATOM    273  O   THR    39      -6.661 -33.215  18.637  1.00  0.00     0.158 OA
ATOM    274  C   THR    39      -7.072 -32.561  21.824  1.00  0.00    -0.169 C 
ATOM    275  O   THR    39      -5.691 -32.673  21.483  1.00  0.00     0.152 OA
ATOM    276  C   THR    39      -7.411 -33.207  23.162  1.00  0.00     0.012 C 
ATOM    277  N   THR    39      -8.155 -34.493  20.591  1.00  0.00     0.222 N 
ATOM    278  C   THR    39      -7.949 -33.048  20.655  1.00  0.00    -0.089 C 
ATOM    279  N   GLY    40      -7.978 -31.404  18.901  1.00  0.00     0.222 N 
ATOM    280  C   GLY    40      -7.646 -30.798  17.625  1.00  0.00    -0.094 C 
ATOM    281  C   GLY    40      -7.320 -29.326  17.716  1.00  0.00    -0.287 C 
ATOM    282  O   GLY    40      -7.850 -28.619  18.578  1.00  0.00     0.158 OA
ATOM    283  C   PHE    41      -2.638 -24.532  14.990  1.00  0.00    -0.000 C 
ATOM    284  C   PHE    41      -2.918 -23.460  15.809  1.00  0.00     0.000 C 
ATOM    285  N   PHE    41      -6.460 -28.858  16.793  1.00  0.00     0.222 N 
ATOM    286  C   PHE    41      -6.625 -26.693  15.545  1.00  0.00    -0.286 C 
ATOM    287  C   PHE    41      -6.034 -27.465  16.733  1.00  0.00    -0.102 C 
ATOM    288  O   PHE    41      -6.476 -27.104  14.394  1.00  0.00     0.158 OA
ATOM    289  C   PHE    41      -3.146 -25.797  15.293  1.00  0.00     0.000 C 
ATOM    290  C   PHE    41      -3.695 -23.636  16.936  1.00  0.00    -0.000 C 
ATOM    291  C   PHE    41      -3.914 -26.000  16.435  1.00  0.00    -0.000 C 
ATOM    292  C   PHE    41      -4.486 -27.365  16.749  1.00  0.00     0.008 C 
ATOM    293  C   PHE    41      -4.186 -24.906  17.253  1.00  0.00     0.000 C 
ATOM    294  N   ASP    42      -7.258 -25.541  15.859  1.00  0.00     0.222 N 
ATOM    295  C   ASP    42      -7.792 -24.528  14.953  1.00  0.00    -0.103 C 
ATOM    296  O   ASP    42     -10.030 -24.373  14.108  1.00  0.00     0.158 OA
ATOM    297  C   ASP    42      -8.935 -24.941  14.016  1.00  0.00    -0.286 C 
ATOM    298  C   ASP    42      -6.627 -23.840  14.198  1.00  0.00     0.032 C 
ATOM    299  C   ASP    42      -6.985 -22.633  13.355  1.00  0.00    -0.347 C 
ATOM    300  O   ASP    42      -7.729 -21.759  13.853  1.00  0.00     0.162 OA
ATOM    301  O   ASP    42      -6.443 -22.513  12.237  1.00  0.00     0.162 OA
ATOM    302  N   ARG    43      -8.683 -25.895  13.105  1.00  0.00     0.222 N 
ATOM    303  C   ARG    43      -9.653 -26.313  12.083  1.00  0.00    -0.102 C 
ATOM    304  C   ARG    43     -10.508 -27.502  12.543  1.00  0.00    -0.286 C 
ATOM    305  O   ARG    43     -10.390 -28.608  12.012  1.00  0.00     0.158 OA
ATOM    306  N   ARG    43      -8.188 -25.803   5.654  1.00  0.00     0.111 N 
ATOM    307  C   ARG    43      -8.914 -26.593  10.754  1.00  0.00     0.007 C 
ATOM    308  C   ARG    43      -7.936 -25.482  10.377  1.00  0.00     0.008 C 
ATOM    309  C   ARG    43      -7.108 -25.815   9.163  1.00  0.00    -0.114 C 
ATOM    310  N   ARG    43      -7.882 -25.675   7.931  1.00  0.00     0.225 N 
ATOM    311  C   ARG    43      -7.414 -25.954   6.721  1.00  0.00    -0.341 C 
ATOM    312  N   ARG    43      -6.168 -26.392   6.567  1.00  0.00     0.111 N 
ATOM    313  C   LEU    44     -12.660 -28.012  15.540  1.00  0.00     0.008 C 
ATOM    314  C   LEU    44     -12.187 -28.327  14.118  1.00  0.00    -0.102 C 
ATOM    315  C   LEU    44     -13.253 -28.967  13.256  1.00  0.00    -0.286 C 
ATOM    316  C   LEU    44     -12.420 -28.783  17.915  1.00  0.00     0.000 C 
ATOM    317  N   LEU    44     -11.368 -27.269  13.530  1.00  0.00     0.222 N 
ATOM    318  O   LEU    44     -13.474 -30.171  13.408  1.00  0.00     0.158 OA
ATOM    319  C   LEU    44     -11.690 -28.516  16.624  1.00  0.00    -0.000 C 
ATOM    320  C   LEU    44     -10.528 -27.551  16.839  1.00  0.00     0.000 C 
ATOM    321  N   ARG    45     -17.028 -25.217   7.531  1.00  0.00     0.111 N 
ATOM    322  N   ARG    45     -18.785 -26.668   7.293  1.00  0.00     0.111 N 
ATOM    323  C   ARG    45     -17.903 -26.057   8.072  1.00  0.00    -0.341 C 
ATOM    324  N   ARG    45     -17.903 -26.275   9.383  1.00  0.00     0.225 N 
ATOM    325  C   ARG    45     -16.975 -25.654  10.330  1.00  0.00    -0.114 C 
ATOM    326  C   ARG    45     -16.367 -26.674  11.269  1.00  0.00     0.008 C 
ATOM    327  O   ARG    45     -14.607 -30.878  10.320  1.00  0.00     0.158 OA
ATOM    328  C   ARG    45     -15.492 -27.655  10.506  1.00  0.00     0.007 C 
ATOM    329  C   ARG    45     -14.120 -29.761  10.497  1.00  0.00    -0.286 C 
ATOM    330  N   ARG    45     -13.868 -28.201  12.312  1.00  0.00     0.222 N 
ATOM    331  C   ARG    45     -14.852 -28.750  11.374  1.00  0.00    -0.102 C 
ATOM    332  C   LEU    46      -8.347 -29.586   8.131  1.00  0.00     0.000 C 
ATOM    333  C   LEU    46     -10.003 -30.804   6.805  1.00  0.00     0.000 C 
ATOM    334  C   LEU    46      -9.643 -30.365   8.181  1.00  0.00    -0.000 C 
ATOM    335  C   LEU    46     -10.771 -29.528   8.795  1.00  0.00     0.008 C 
ATOM    336  O   LEU    46     -11.896 -32.651   9.495  1.00  0.00     0.158 OA
ATOM    337  C   LEU    46     -11.717 -31.552  10.017  1.00  0.00    -0.286 C 
ATOM    338  N   LEU    46     -12.922 -29.388  10.002  1.00  0.00     0.222 N 
ATOM    339  C   LEU    46     -12.063 -30.274   9.222  1.00  0.00    -0.102 C 
ATOM    340  C   ILE    47     -10.845 -32.531  12.133  1.00  0.00    -0.102 C 
ATOM    341  N   ILE    47     -11.236 -31.403  11.268  1.00  0.00     0.222 N 
ATOM    342  C   ILE    47      -8.134 -30.404  14.004  1.00  0.00     0.000 C 
ATOM    343  C   ILE    47      -9.653 -33.303  14.248  1.00  0.00    -0.000 C 
ATOM    344  C   ILE    47      -8.762 -31.317  12.955  1.00  0.00    -0.000 C 
ATOM    345  C   ILE    47     -10.038 -32.089  13.386  1.00  0.00     0.008 C 
ATOM    346  O   ILE    47     -11.856 -34.687  12.355  1.00  0.00     0.158 OA
ATOM    347  C   ILE    47     -12.018 -33.471  12.438  1.00  0.00    -0.286 C 
ATOM    348  C   GLN    48     -16.593 -34.310  15.086  1.00  0.00    -0.286 C 
ATOM    349  C   GLN    48     -15.581 -32.764  13.359  1.00  0.00     0.007 C 
ATOM    350  C   GLN    48     -16.836 -33.464  13.866  1.00  0.00     0.020 C 
ATOM    351  O   GLN    48     -16.435 -35.533  14.988  1.00  0.00     0.158 OA
ATOM    352  N   GLN    48     -16.560 -33.677  16.258  1.00  0.00     0.108 N 
ATOM    353  C   GLN    48     -14.756 -34.583  11.746  1.00  0.00    -0.286 C 
ATOM    354  C   GLN    48     -14.406 -33.696  12.974  1.00  0.00    -0.102 C 
ATOM    355  N   GLN    48     -13.203 -32.912  12.716  1.00  0.00     0.222 N 
ATOM    356  O   GLN    48     -15.015 -35.776  11.912  1.00  0.00     0.158 OA
ATOM    357  N   ARG    49     -14.707 -34.019  10.525  1.00  0.00     0.222 N 
ATOM    358  C   ARG    49     -15.022 -34.790   9.318  1.00  0.00    -0.102 C 
ATOM    359  C   ARG    49     -14.738 -34.570   6.825  1.00  0.00     0.008 C 
ATOM    360  O   ARG    49     -14.434 -37.016   8.654  1.00  0.00     0.158 OA
ATOM    361  C   ARG    49     -14.025 -35.925   9.057  1.00  0.00    -0.286 C 
ATOM    362  C   ARG    49     -15.207 -33.889   8.094  1.00  0.00     0.007 C 
ATOM    363  C   ARG    49     -14.940 -33.774   5.607  1.00  0.00    -0.114 C 
ATOM    364  N   ARG    49     -14.034 -32.638   5.453  1.00  0.00     0.225 N 
ATOM    365  C   ARG    49     -12.884 -32.667   4.798  1.00  0.00    -0.341 C 
ATOM    366  N   ARG    49     -12.405 -33.814   4.332  1.00  0.00     0.111 N 
ATOM    367  N   ARG    49     -12.182 -31.559   4.639  1.00  0.00     0.111 N 
ATOM    368  C   ILE    50     -10.014 -35.451   7.691  1.00  0.00    -0.000 C 
ATOM    369  C   ILE    50      -9.172 -37.003   9.484  1.00  0.00    -0.000 C 
ATOM    370  O   ILE    50     -11.828 -38.983   9.754  1.00  0.00     0.158 OA
ATOM    371  C   ILE    50     -10.280 -36.018   9.090  1.00  0.00     0.008 C 
ATOM    372  C   ILE    50      -9.435 -34.152   7.695  1.00  0.00     0.000 C 
ATOM    373  N   ILE    50     -12.728 -35.669   9.285  1.00  0.00     0.222 N 
ATOM    374  C   ILE    50     -11.689 -36.676   9.111  1.00  0.00    -0.102 C 
ATOM    375  C   ILE    50     -11.849 -37.807  10.133  1.00  0.00    -0.286 C 
ATOM    376  N   THR    51     -12.089 -37.447  11.409  1.00  0.00     0.222 N 
ATOM    377  C   THR    51     -12.231 -38.425  12.490  1.00  0.00    -0.089 C 
ATOM    378  C   THR    51     -11.889 -37.822  13.860  1.00  0.00    -0.169 C 
ATOM    379  C   THR    51     -10.497 -37.201  13.893  1.00  0.00     0.012 C 
ATOM    380  O   THR    51     -12.870 -36.846  14.197  1.00  0.00     0.152 OA
ATOM    381  C   THR    51     -13.544 -39.223  12.430  1.00  0.00    -0.287 C 
ATOM    382  O   THR    51     -13.633 -40.276  13.061  1.00  0.00     0.158 OA
ATOM    383  O   ASP    52     -16.294 -41.780  10.943  1.00  0.00     0.158 OA
ATOM    384  N   ASP    52     -14.526 -38.766  11.629  1.00  0.00     0.222 N 
ATOM    385  C   ASP    52     -15.797 -39.474  11.407  1.00  0.00    -0.103 C 
ATOM    386  C   ASP    52     -15.523 -40.838  10.759  1.00  0.00    -0.286 C 
ATOM    387  O   ASP    52     -17.459 -37.482  12.452  1.00  0.00     0.162 OA
ATOM    388  C   ASP    52     -17.515 -37.548  11.198  1.00  0.00    -0.347 C 
ATOM    389  O   ASP    52     -18.138 -36.725  10.498  1.00  0.00     0.162 OA
ATOM    390  C   ASP    52     -16.732 -38.648  10.494  1.00  0.00     0.032 C 
ATOM    391  C   ARG    53     -13.532 -40.627   7.219  1.00  0.00     0.008 C 
ATOM    392  C   ARG    53     -14.949 -40.695   6.712  1.00  0.00    -0.114 C 
ATOM    393  N   ARG    53     -15.230 -39.607   5.777  1.00  0.00     0.225 N 
ATOM    394  O   ARG    53     -12.980 -44.274   9.844  1.00  0.00     0.158 OA
ATOM    395  C   ARG    53     -13.076 -41.812   8.101  1.00  0.00     0.007 C 
ATOM    396  N   ARG    53     -14.394 -40.937  10.034  1.00  0.00     0.222 N 
ATOM    397  C   ARG    53     -13.949 -42.142   9.343  1.00  0.00    -0.102 C 
ATOM    398  C   ARG    53     -13.256 -43.156  10.281  1.00  0.00    -0.286 C 
ATOM    399  C   ARG    53     -16.430 -39.342   5.275  1.00  0.00    -0.341 C 
ATOM    400  N   ARG    53     -17.474 -40.096   5.597  1.00  0.00     0.111 N 
ATOM    401  N   ARG    53     -16.588 -38.354   4.410  1.00  0.00     0.111 N 
ATOM    402  O   LEU    54     -14.639 -44.621  12.711  1.00  0.00     0.159 OA
ATOM    403  N   LEU    54     -13.011 -42.799  11.569  1.00  0.00     0.222 N 
ATOM    404  C   LEU    54     -12.424 -43.748  12.525  1.00  0.00    -0.101 C 
ATOM    405  C   LEU    54      -9.466 -43.002  13.533  1.00  0.00     0.000 C 
ATOM    406  C   LEU    54     -10.580 -41.342  15.036  1.00  0.00     0.000 C 
ATOM    407  C   LEU    54     -10.728 -42.175  13.782  1.00  0.00    -0.000 C 
ATOM    408  C   LEU    54     -11.999 -43.052  13.843  1.00  0.00     0.008 C 
ATOM    409  C   LEU    54     -13.445 -44.888  12.791  1.00  0.00    -0.296 C 
ATOM    410  C   PRO    55     -11.644 -46.684  13.116  1.00  0.00    -0.124 C 
ATOM    411  C   PRO    55     -11.813 -47.949  13.901  1.00  0.00     0.008 C 
ATOM    412  C   PRO    55     -13.166 -48.482  13.531  1.00  0.00     0.008 C 
ATOM    413  O   PRO    55     -16.184 -47.593  14.200  1.00  0.00     0.158 OA
ATOM    414  C   PRO    55     -15.095 -47.027  14.305  1.00  0.00    -0.286 C 
ATOM    415  C   PRO    55     -14.024 -47.246  13.229  1.00  0.00    -0.112 C 
ATOM    416  N   PRO    55     -13.027 -46.160  13.038  1.00  0.00     0.356 N 
ATOM    417  C   ALA    56     -15.320 -46.635  17.685  1.00  0.00     0.007 C 
ATOM    418  O   ALA    56     -14.759 -43.670  16.357  1.00  0.00     0.158 OA
ATOM    419  N   ALA    56     -14.790 -46.210  15.328  1.00  0.00     0.222 N 
ATOM    420  C   ALA    56     -15.720 -44.372  16.686  1.00  0.00    -0.286 C 
ATOM    421  C   ALA    56     -15.707 -45.877  16.419  1.00  0.00    -0.102 C 
ATOM    422  N   LYS    57     -16.809 -43.890  17.298  1.00  0.00     0.222 N 
ATOM    423  O   LYS    57     -15.810 -42.890  19.707  1.00  0.00     0.158 OA
ATOM    424  C   LYS    57     -19.478 -42.137  16.998  1.00  0.00    -0.000 C 
ATOM    425  C   LYS    57     -18.477 -42.274  18.139  1.00  0.00     0.008 C 
ATOM    426  C   LYS    57     -16.071 -42.096  18.797  1.00  0.00    -0.286 C 
ATOM    427  C   LYS    57     -17.022 -42.494  17.679  1.00  0.00    -0.102 C 
ATOM    428  O   ALA    58     -14.866 -38.109  18.838  1.00  0.00     0.159 OA
ATOM    429  C   ALA    58     -13.193 -40.582  19.329  1.00  0.00     0.007 C 
ATOM    430  C   ALA    58     -14.639 -40.319  19.722  1.00  0.00    -0.101 C 
ATOM    431  C   ALA    58     -14.905 -38.810  19.855  1.00  0.00    -0.296 C 
ATOM    432  N   ALA    58     -15.541 -40.870  18.719  1.00  0.00     0.222 N 
ATOM    433  C   PRO    59     -16.052 -38.029  23.220  1.00  0.00     0.008 C 
ATOM    434  C   PRO    59     -15.277 -38.973  22.380  1.00  0.00    -0.124 C 
ATOM    435  C   PRO    59     -15.847 -36.666  22.684  1.00  0.00     0.008 C 
ATOM    436  O   PRO    59     -13.096 -36.386  21.201  1.00  0.00     0.158 OA
ATOM    437  C   PRO    59     -15.454 -36.838  21.212  1.00  0.00    -0.112 C 
ATOM    438  C   PRO    59     -14.221 -35.998  20.877  1.00  0.00    -0.286 C 
ATOM    439  N   PRO    59     -15.215 -38.290  21.073  1.00  0.00     0.356 N 
ATOM    440  C   LEU    60     -13.379 -33.952  19.801  1.00  0.00    -0.102 C 
ATOM    441  C   LEU    60     -13.392 -32.693  20.659  1.00  0.00    -0.286 C 
ATOM    442  N   LEU    60     -14.442 -34.861  20.207  1.00  0.00     0.222 N 
ATOM    443  C   LEU    60     -12.758 -32.331  16.270  1.00  0.00     0.000 C 
ATOM    444  C   LEU    60     -11.004 -33.345  17.756  1.00  0.00     0.000 C 
ATOM    445  C   LEU    60     -12.410 -32.701  17.694  1.00  0.00    -0.000 C 
ATOM    446  C   LEU    60     -13.493 -33.616  18.299  1.00  0.00     0.008 C 
ATOM    447  O   LEU    60     -14.432 -32.060  20.803  1.00  0.00     0.158 OA
ATOM    448  C   LEU    61     -11.642 -33.025  25.512  1.00  0.00     0.000 C 
ATOM    449  C   LEU    61     -12.380 -32.576  24.273  1.00  0.00    -0.000 C 
ATOM    450  C   LEU    61     -13.725 -31.973  24.645  1.00  0.00     0.000 C 
ATOM    451  C   LEU    61     -11.519 -31.595  23.462  1.00  0.00     0.008 C 
ATOM    452  O   LEU    61     -10.024 -30.698  20.877  1.00  0.00     0.158 OA
ATOM    453  C   LEU    61     -12.031 -31.168  22.067  1.00  0.00    -0.102 C 
ATOM    454  N   LEU    61     -12.229 -32.342  21.218  1.00  0.00     0.222 N 
ATOM    455  C   LEU    61     -11.010 -30.231  21.427  1.00  0.00    -0.286 C 
ATOM    456  O   GLU    62      -9.904 -23.315  19.321  1.00  0.00     0.162 OA
ATOM    457  O   GLU    62     -11.818 -23.887  20.259  1.00  0.00     0.162 OA
ATOM    458  C   GLU    62     -10.112 -25.561  20.036  1.00  0.00     0.024 C 
ATOM    459  C   GLU    62     -10.658 -24.156  19.861  1.00  0.00    -0.347 C 
ATOM    460  C   GLU    62     -10.984 -26.578  20.753  1.00  0.00     0.007 C 
ATOM    461  O   GLU    62      -9.255 -27.654  23.100  1.00  0.00     0.158 OA
ATOM    462  C   GLU    62     -10.301 -27.938  20.958  1.00  0.00    -0.102 C 
ATOM    463  C   GLU    62      -9.095 -27.804  21.880  1.00  0.00    -0.286 C 
ATOM    464  N   GLU    62     -11.233 -28.914  21.516  1.00  0.00     0.222 N 
ATOM    465  C   LEU    63      -4.451 -30.292  24.018  1.00  0.00     0.000 C 
ATOM    466  C   LEU    63      -5.537 -27.091  21.270  1.00  0.00    -0.286 C 
ATOM    467  C   LEU    63      -4.945 -27.942  24.751  1.00  0.00     0.000 C 
ATOM    468  C   LEU    63      -4.894 -28.917  23.577  1.00  0.00    -0.000 C 
ATOM    469  C   LEU    63      -6.238 -28.981  22.826  1.00  0.00     0.008 C 
ATOM    470  O   LEU    63      -4.909 -27.752  20.432  1.00  0.00     0.158 OA
ATOM    471  C   LEU    63      -6.672 -27.704  22.067  1.00  0.00    -0.102 C 
ATOM    472  N   LEU    63      -7.895 -27.873  21.303  1.00  0.00     0.222 N 
ATOM    473  O   ASP    64      -2.228 -23.119  20.309  1.00  0.00     0.162 OA
ATOM    474  O   ASP    64      -3.666 -21.480  20.045  1.00  0.00     0.162 OA
ATOM    475  C   ASP    64      -3.197 -25.113  22.185  1.00  0.00    -0.286 C 
ATOM    476  C   ASP    64      -3.399 -22.669  20.299  1.00  0.00    -0.347 C 
ATOM    477  C   ASP    64      -4.552 -23.611  20.650  1.00  0.00     0.032 C 
ATOM    478  O   ASP    64      -3.497 -24.553  23.243  1.00  0.00     0.158 OA
ATOM    479  C   ASP    64      -4.158 -25.068  21.010  1.00  0.00    -0.103 C 
ATOM    480  N   ASP    64      -5.286 -25.810  21.546  1.00  0.00     0.222 N 
ATOM    481  C   VAL    65      -0.764 -28.475  22.848  1.00  0.00    -0.000 C 
ATOM    482  C   VAL    65      -0.441 -24.662  23.552  1.00  0.00    -0.286 C 
ATOM    483  C   VAL    65       0.769 -26.871  21.626  1.00  0.00    -0.000 C 
ATOM    484  C   VAL    65      -0.073 -27.112  22.884  1.00  0.00     0.008 C 
ATOM    485  O   VAL    65       0.143 -24.613  24.627  1.00  0.00     0.158 OA
ATOM    486  C   VAL    65      -1.097 -25.977  23.112  1.00  0.00    -0.102 C 
ATOM    487  N   VAL    65      -2.073 -25.827  22.028  1.00  0.00     0.222 N 
ATOM    488  O   GLN    66       1.716 -20.938  19.092  1.00  0.00     0.158 OA
ATOM    489  N   GLN    66       3.384 -20.497  20.510  1.00  0.00     0.108 N 
ATOM    490  C   GLN    66       0.441 -21.570  21.775  1.00  0.00     0.007 C 
ATOM    491  O   GLN    66      -0.644 -20.367  24.319  1.00  0.00     0.158 OA
ATOM    492  C   GLN    66       2.281 -21.138  20.169  1.00  0.00    -0.286 C 
ATOM    493  C   GLN    66       1.734 -22.106  21.174  1.00  0.00     0.020 C 
ATOM    494  C   GLN    66       0.017 -22.296  23.050  1.00  0.00    -0.102 C 
ATOM    495  C   GLN    66      -0.992 -21.443  23.833  1.00  0.00    -0.286 C 
ATOM    496  N   GLN    66      -0.540 -23.609  22.727  1.00  0.00     0.222 N 
ATOM    497  N   ASN    67      -6.229 -19.734  23.527  1.00  0.00     0.108 N 
ATOM    498  O   ASN    67      -6.270 -20.820  25.474  1.00  0.00     0.158 OA
ATOM    499  C   ASN    67      -5.769 -20.642  24.365  1.00  0.00    -0.286 C 
ATOM    500  C   ASN    67      -3.421 -21.725  26.112  1.00  0.00    -0.286 C 
ATOM    501  C   ASN    67      -4.626 -21.479  23.879  1.00  0.00     0.028 C 
ATOM    502  O   ASN    67      -3.756 -22.885  26.388  1.00  0.00     0.158 OA
ATOM    503  N   ASN    67      -2.231 -21.931  23.948  1.00  0.00     0.222 N 
ATOM    504  C   ASN    67      -3.321 -21.261  24.643  1.00  0.00    -0.102 C 
ATOM    505  C   GLU    68      -1.107 -19.644  29.139  1.00  0.00     0.024 C 
ATOM    506  O   GLU    68       0.743 -21.111  28.835  1.00  0.00     0.162 OA
ATOM    507  O   GLU    68      -0.468 -21.371  30.656  1.00  0.00     0.162 OA
ATOM    508  C   GLU    68      -0.215 -20.792  29.575  1.00  0.00    -0.347 C 
ATOM    509  C   GLU    68      -2.607 -19.863  29.293  1.00  0.00     0.007 C 
ATOM    510  N   GLU    68      -3.122 -20.805  27.048  1.00  0.00     0.222 N 
ATOM    511  O   GLU    68      -4.665 -22.265  29.897  1.00  0.00     0.158 OA
ATOM    512  C   GLU    68      -4.561 -21.439  28.996  1.00  0.00    -0.286 C 
ATOM    513  C   GLU    68      -3.164 -21.059  28.493  1.00  0.00    -0.102 C 
ATOM    514  O   GLU    69      -8.357 -17.207  26.977  1.00  0.00     0.162 OA
ATOM    515  O   GLU    69      -9.784 -17.328  28.654  1.00  0.00     0.162 OA
ATOM    516  C   GLU    69      -8.721 -17.669  28.084  1.00  0.00    -0.347 C 
ATOM    517  C   GLU    69      -7.839 -18.700  28.760  1.00  0.00     0.024 C 
ATOM    518  C   GLU    69      -7.987 -20.095  28.186  1.00  0.00     0.007 C 
ATOM    519  O   GLU    69      -8.115 -23.235  29.161  1.00  0.00     0.158 OA
ATOM    520  C   GLU    69      -7.452 -22.555  28.374  1.00  0.00    -0.286 C 
ATOM    521  C   GLU    69      -7.022 -21.139  28.779  1.00  0.00    -0.102 C 
ATOM    522  N   GLU    69      -5.623 -20.864  28.401  1.00  0.00     0.222 N 
ATOM    523  N   HIS    70      -7.190 -23.974  22.793  1.00  0.00     0.219 N 
ATOM    524  N   HIS    70      -8.765 -22.449  22.900  1.00  0.00     0.218 N 
ATOM    525  C   HIS    70      -7.982 -23.168  22.101  1.00  0.00    -0.225 C 
ATOM    526  C   HIS    70      -8.471 -22.813  24.191  1.00  0.00    -0.106 C 
ATOM    527  C   HIS    70      -7.497 -23.751  24.122  1.00  0.00    -0.114 C 
ATOM    528  N   HIS    70      -7.069 -22.994  27.152  1.00  0.00     0.222 N 
ATOM    529  C   HIS    70      -6.787 -24.499  25.210  1.00  0.00     0.016 C 
ATOM    530  O   HIS    70      -7.402 -26.394  27.865  1.00  0.00     0.158 OA
ATOM    531  C   HIS    70      -6.751 -25.399  27.550  1.00  0.00    -0.286 C 
ATOM    532  C   HIS    70      -7.370 -24.332  26.627  1.00  0.00    -0.102 C 
ATOM    533  C   LEU    71      -2.123 -27.549  27.686  1.00  0.00     0.000 C 
ATOM    534  C   LEU    71      -2.464 -26.062  27.688  1.00  0.00    -0.000 C 
ATOM    535  C   LEU    71      -1.210 -25.229  27.616  1.00  0.00     0.000 C 
ATOM    536  C   LEU    71      -3.288 -25.685  28.919  1.00  0.00     0.008 C 
ATOM    537  O   LEU    71      -5.452 -27.212  30.851  1.00  0.00     0.158 OA
ATOM    538  C   LEU    71      -5.348 -26.125  30.279  1.00  0.00    -0.286 C 
ATOM    539  C   LEU    71      -4.767 -26.072  28.872  1.00  0.00    -0.102 C 
ATOM    540  N   LEU    71      -5.499 -25.172  27.983  1.00  0.00     0.222 N 
ATOM    541  O   ALA    72      -8.128 -25.893  33.339  1.00  0.00     0.158 OA
ATOM    542  C   ALA    72      -6.458 -23.348  32.533  1.00  0.00     0.007 C 
ATOM    543  N   ALA    72      -5.747 -24.957  30.825  1.00  0.00     0.222 N 
ATOM    544  C   ALA    72      -6.349 -24.818  32.160  1.00  0.00    -0.102 C 
ATOM    545  C   ALA    72      -7.728 -25.476  32.251  1.00  0.00    -0.286 C 
ATOM    546  C   SER    73      -9.794 -26.165  31.093  1.00  0.00    -0.089 C 
ATOM    547  N   SER    73      -8.449 -25.572  31.119  1.00  0.00     0.222 N 
ATOM    548  O   SER    73     -10.461 -25.222  28.946  1.00  0.00     0.152 OA
ATOM    549  C   SER    73     -10.775 -25.272  30.329  1.00  0.00    -0.156 C 
ATOM    550  O   SER    73     -10.834 -28.273  30.663  1.00  0.00     0.158 OA
ATOM    551  C   SER    73      -9.810 -27.596  30.545  1.00  0.00    -0.287 C 
ATOM    552  C   LEU    74      -6.945 -30.868  27.928  1.00  0.00    -0.000 C 
ATOM    553  C   LEU    74      -7.105 -29.637  28.812  1.00  0.00     0.008 C 
ATOM    554  O   LEU    74      -9.910 -31.281  29.692  1.00  0.00     0.158 OA
ATOM    555  C   LEU    74      -5.479 -31.114  27.617  1.00  0.00     0.000 C 
ATOM    556  C   LEU    74      -7.746 -30.729  26.619  1.00  0.00     0.000 C 
ATOM    557  C   LEU    74      -9.029 -30.566  30.177  1.00  0.00    -0.286 C 
ATOM    558  N   LEU    74      -8.673 -28.059  29.980  1.00  0.00     0.222 N 
ATOM    559  C   LEU    74      -8.529 -29.381  29.359  1.00  0.00    -0.102 C 
ATOM    560  C   ALA    75      -8.100 -31.771  33.611  1.00  0.00     0.007 C 
ATOM    561  C   ALA    75      -8.879 -31.850  32.307  1.00  0.00    -0.102 C 
ATOM    562  C   ALA    75     -10.396 -31.888  32.579  1.00  0.00    -0.286 C 
ATOM    563  O   ALA    75     -10.988 -32.968  32.544  1.00  0.00     0.158 OA
ATOM    564  N   ALA    75      -8.494 -30.757  31.406  1.00  0.00     0.222 N 
ATOM    565  O   GLY    76     -14.214 -31.733  31.922  1.00  0.00     0.158 OA
ATOM    566  C   GLY    76     -13.240 -30.988  31.800  1.00  0.00    -0.287 C 
ATOM    567  N   GLY    76     -11.001 -30.715  32.792  1.00  0.00     0.222 N 
ATOM    568  C   GLY    76     -12.440 -30.569  33.018  1.00  0.00    -0.094 C 
ATOM    569  C   ARG    77     -13.413 -28.559  28.335  1.00  0.00     0.008 C 
ATOM    570  C   ARG    77     -12.916 -30.009  28.184  1.00  0.00     0.007 C 
ATOM    571  C   ARG    77     -13.294 -32.413  29.029  1.00  0.00    -0.286 C 
ATOM    572  O   ARG    77     -14.284 -33.021  28.620  1.00  0.00     0.158 OA
ATOM    573  N   ARG    77     -11.513 -27.411  27.204  1.00  0.00     0.225 N 
ATOM    574  C   ARG    77     -12.965 -27.635  27.217  1.00  0.00    -0.114 C 
ATOM    575  C   ARG    77     -10.735 -27.612  26.144  1.00  0.00    -0.341 C 
ATOM    576  N   ARG    77     -11.254 -28.052  25.004  1.00  0.00     0.111 N 
ATOM    577  N   ARG    77      -9.433 -27.372  26.215  1.00  0.00     0.111 N 
ATOM    578  C   ARG    77     -13.417 -30.908  29.332  1.00  0.00    -0.102 C 
ATOM    579  N   ARG    77     -12.795 -30.554  30.607  1.00  0.00     0.222 N 
ATOM    580  O   VAL    78     -13.529 -36.166  29.555  1.00  0.00     0.158 OA
ATOM    581  C   VAL    78     -10.405 -34.881  29.357  1.00  0.00     0.008 C 
ATOM    582  C   VAL    78     -10.246 -36.396  29.251  1.00  0.00    -0.000 C 
ATOM    583  C   VAL    78      -9.477 -34.180  28.370  1.00  0.00    -0.000 C 
ATOM    584  C   VAL    78     -11.882 -34.468  29.141  1.00  0.00    -0.102 C 
ATOM    585  C   VAL    78     -12.814 -35.293  30.049  1.00  0.00    -0.286 C 
ATOM    586  N   VAL    78     -12.119 -33.024  29.316  1.00  0.00     0.222 N 
ATOM    587  N   THR    79     -12.778 -35.028  31.372  1.00  0.00     0.222 N 
ATOM    588  C   THR    79     -13.613 -35.721  32.360  1.00  0.00    -0.089 C 
ATOM    589  C   THR    79     -15.109 -35.584  32.035  1.00  0.00    -0.287 C 
ATOM    590  O   THR    79     -15.863 -36.536  32.222  1.00  0.00     0.158 OA
ATOM    591  O   THR    79     -13.043 -33.946  33.923  1.00  0.00     0.152 OA
ATOM    592  C   THR    79     -13.217 -35.359  33.806  1.00  0.00    -0.169 C 
ATOM    593  C   THR    79     -11.942 -36.071  34.263  1.00  0.00     0.012 C 
ATOM    594  C   GLU    80     -18.390 -31.153  29.155  1.00  0.00    -0.347 C 
ATOM    595  C   GLU    80     -17.238 -35.121  29.854  1.00  0.00    -0.286 C 
ATOM    596  C   GLU    80     -16.899 -34.177  31.038  1.00  0.00    -0.102 C 
ATOM    597  O   GLU    80     -18.342 -35.658  29.801  1.00  0.00     0.158 OA
ATOM    598  C   GLU    80     -17.044 -32.699  30.636  1.00  0.00     0.007 C 
ATOM    599  C   GLU    80     -18.428 -32.246  30.208  1.00  0.00     0.024 C 
ATOM    600  O   GLU    80     -17.661 -30.153  29.350  1.00  0.00     0.162 OA
ATOM    601  O   GLU    80     -19.076 -31.311  28.120  1.00  0.00     0.162 OA
ATOM    602  N   GLU    80     -15.515 -34.431  31.475  1.00  0.00     0.222 N 
ATOM    603  C   ALA    81     -16.428 -36.248  27.795  1.00  0.00    -0.102 C 
ATOM    604  N   ALA    81     -16.270 -35.358  28.949  1.00  0.00     0.222 N 
ATOM    605  C   ALA    81     -15.374 -35.941  26.742  1.00  0.00     0.007 C 
ATOM    606  O   ALA    81     -17.051 -38.536  27.489  1.00  0.00     0.158 OA
ATOM    607  C   ALA    81     -16.389 -37.743  28.159  1.00  0.00    -0.286 C 
ATOM    608  C   ILE    82     -13.229 -40.088  28.514  1.00  0.00    -0.000 C 
ATOM    609  C   ILE    82     -13.245 -39.174  30.917  1.00  0.00    -0.000 C 
ATOM    610  C   ILE    82     -11.881 -39.782  31.410  1.00  0.00     0.000 C 
ATOM    611  O   ILE    82     -16.412 -41.090  31.155  1.00  0.00     0.158 OA
ATOM    612  C   ILE    82     -13.989 -39.995  29.829  1.00  0.00     0.008 C 
ATOM    613  N   ILE    82     -15.597 -38.133  29.182  1.00  0.00     0.222 N 
ATOM    614  C   ILE    82     -15.464 -39.533  29.618  1.00  0.00    -0.102 C 
ATOM    615  C   ILE    82     -16.344 -39.911  30.808  1.00  0.00    -0.286 C 
ATOM    616  C   GLY    83     -17.849 -39.123  32.581  1.00  0.00    -0.094 C 
ATOM    617  N   GLY    83     -16.973 -38.919  31.435  1.00  0.00     0.222 N 
ATOM    618  C   GLY    83     -17.138 -38.946  33.903  1.00  0.00    -0.287 C 
ATOM    619  O   GLY    83     -15.979 -39.358  34.051  1.00  0.00     0.158 OA
ATOM    620  C   ALA    84     -18.383 -37.375  37.060  1.00  0.00     0.007 C 
ATOM    621  O   ALA    84     -17.627 -40.392  36.761  1.00  0.00     0.158 OA
ATOM    622  N   ALA    84     -17.827 -38.314  34.869  1.00  0.00     0.222 N 
ATOM    623  C   ALA    84     -17.317 -38.070  36.217  1.00  0.00    -0.102 C 
ATOM    624  C   ALA    84     -16.913 -39.387  36.880  1.00  0.00    -0.286 C 
ATOM    625  C   GLY    85     -15.259 -40.562  38.218  1.00  0.00    -0.094 C 
ATOM    626  N   GLY    85     -15.765 -39.377  37.540  1.00  0.00     0.222 N 
ATOM    627  C   GLY    85     -14.441 -41.474  37.329  1.00  0.00    -0.287 C 
ATOM    628  O   GLY    85     -13.950 -42.507  37.792  1.00  0.00     0.158 OA
ATOM    629  C   ASN    86     -12.187 -41.077  34.843  1.00  0.00    -0.286 C 
ATOM    630  N   ASN    86     -15.178 -44.156  34.728  1.00  0.00     0.108 N 
ATOM    631  O   ASN    86     -16.377 -42.976  33.272  1.00  0.00     0.158 OA
ATOM    632  C   ASN    86     -13.464 -41.851  35.109  1.00  0.00    -0.102 C 
ATOM    633  N   ASN    86     -14.299 -41.109  36.046  1.00  0.00     0.222 N 
ATOM    634  C   ASN    86     -14.194 -42.145  33.799  1.00  0.00     0.028 C 
ATOM    635  O   ASN    86     -12.200 -39.844  34.765  1.00  0.00     0.158 OA
ATOM    636  C   ASN    86     -15.346 -43.116  33.930  1.00  0.00    -0.286 C 
ATOM    637  N   LYS    87      -6.944 -39.396  39.772  1.00  0.00     0.097 N 
ATOM    638  N   LYS    87     -11.080 -41.795  34.732  1.00  0.00     0.222 N 
ATOM    639  C   LYS    87      -9.232 -41.741  33.134  1.00  0.00    -0.286 C 
ATOM    640  C   LYS    87      -8.054 -40.500  37.852  1.00  0.00     0.008 C 
ATOM    641  C   LYS    87      -9.799 -41.164  34.425  1.00  0.00    -0.102 C 
ATOM    642  C   LYS    87      -8.102 -39.356  38.834  1.00  0.00    -0.105 C 
ATOM    643  C   LYS    87      -8.813 -41.309  35.594  1.00  0.00     0.008 C 
ATOM    644  O   LYS    87      -9.736 -42.756  32.627  1.00  0.00     0.158 OA
ATOM    645  C   LYS    87      -9.094 -40.356  36.753  1.00  0.00    -0.001 C 
ATOM    646  N   LEU    88      -8.204 -41.073  32.586  1.00  0.00     0.222 N 
ATOM    647  C   LEU    88      -6.802 -40.330  30.703  1.00  0.00     0.008 C 
ATOM    648  O   LEU    88      -5.867 -42.441  32.823  1.00  0.00     0.158 OA
ATOM    649  C   LEU    88      -7.661 -39.254  30.043  1.00  0.00    -0.000 C 
ATOM    650  C   LEU    88      -6.770 -38.147  29.494  1.00  0.00     0.000 C 
ATOM    651  C   LEU    88      -8.545 -39.835  28.924  1.00  0.00     0.000 C 
ATOM    652  C   LEU    88      -6.469 -42.536  31.758  1.00  0.00    -0.286 C 
ATOM    653  C   LEU    88      -7.513 -41.513  31.385  1.00  0.00    -0.102 C 
ATOM    654  N   ASP    89      -6.217 -43.485  30.857  1.00  0.00     0.222 N 
ATOM    655  C   ASP    89      -5.166 -44.498  31.005  1.00  0.00    -0.103 C 
ATOM    656  O   ASP    89      -2.884 -44.626  30.285  1.00  0.00     0.158 OA
ATOM    657  C   ASP    89      -6.846 -46.293  31.588  1.00  0.00    -0.347 C 
ATOM    658  C   ASP    89      -4.006 -44.155  30.085  1.00  0.00    -0.286 C 
ATOM    659  O   ASP    89      -7.982 -46.438  31.106  1.00  0.00     0.162 OA
ATOM    660  C   ASP    89      -5.718 -45.888  30.658  1.00  0.00     0.032 C 
ATOM    661  O   ASP    89      -6.603 -46.381  32.815  1.00  0.00     0.162 OA
ATOM    662  O   GLY    90      -4.534 -41.061  27.449  1.00  0.00     0.158 OA
ATOM    663  C   GLY    90      -3.428 -41.606  27.514  1.00  0.00    -0.287 C 
ATOM    664  C   GLY    90      -3.283 -43.001  28.070  1.00  0.00    -0.094 C 
ATOM    665  N   GLY    90      -4.294 -43.369  29.054  1.00  0.00     0.222 N 
ATOM    666  C   VAL    91      -1.470 -37.274  26.741  1.00  0.00    -0.000 C 
ATOM    667  C   VAL    91      -1.753 -38.590  27.483  1.00  0.00     0.008 C 
ATOM    668  C   VAL    91      -2.191 -39.706  26.490  1.00  0.00    -0.102 C 
ATOM    669  N   VAL    91      -2.291 -41.027  27.106  1.00  0.00     0.222 N 
ATOM    670  C   VAL    91      -2.791 -38.378  28.584  1.00  0.00    -0.000 C 
ATOM    671  O   VAL    91      -0.088 -40.271  25.519  1.00  0.00     0.158 OA
ATOM    672  C   VAL    91      -1.220 -39.811  25.334  1.00  0.00    -0.286 C 
ATOM    673  C   VAL    92      -1.375 -41.707  22.215  1.00  0.00    -0.000 C 
ATOM    674  C   VAL    92      -1.316 -40.242  21.798  1.00  0.00     0.008 C 
ATOM    675  C   VAL    92      -0.435 -40.087  20.554  1.00  0.00    -0.000 C 
ATOM    676  C   VAL    92      -0.535 -37.907  22.535  1.00  0.00    -0.286 C 
ATOM    677  O   VAL    92      -1.465 -37.182  22.178  1.00  0.00     0.158 OA
ATOM    678  C   VAL    92      -0.800 -39.353  22.963  1.00  0.00    -0.102 C 
ATOM    679  N   VAL    92      -1.655 -39.373  24.147  1.00  0.00     0.222 N 
ATOM    680  N   HIS    93       0.732 -37.495  22.588  1.00  0.00     0.222 N 
ATOM    681  C   HIS    93       2.777 -34.266  22.638  1.00  0.00    -0.114 C 
ATOM    682  N   HIS    93       3.680 -34.122  21.594  1.00  0.00     0.219 N 
ATOM    683  C   HIS    93       2.529 -33.045  23.173  1.00  0.00    -0.106 C 
ATOM    684  C   HIS    93       1.168 -36.185  22.121  1.00  0.00    -0.102 C 
ATOM    685  C   HIS    93       3.938 -32.826  21.518  1.00  0.00    -0.225 C 
ATOM    686  C   HIS    93       2.259 -35.615  23.051  1.00  0.00     0.016 C 
ATOM    687  O   HIS    93       2.732 -37.066  20.538  1.00  0.00     0.158 OA
ATOM    688  C   HIS    93       1.715 -36.407  20.698  1.00  0.00    -0.286 C 
ATOM    689  N   HIS    93       3.267 -32.136  22.448  1.00  0.00     0.218 N 
ATOM    690  C   SER    94       0.601 -37.166  17.580  1.00  0.00    -0.156 C 
ATOM    691  C   SER    94       1.354 -34.723  17.607  1.00  0.00    -0.287 C 
ATOM    692  O   SER    94       1.064 -37.453  16.274  1.00  0.00     0.152 OA
ATOM    693  O   SER    94       0.689 -34.517  16.584  1.00  0.00     0.158 OA
ATOM    694  C   SER    94       1.448 -36.107  18.277  1.00  0.00    -0.089 C 
ATOM    695  N   SER    94       1.006 -35.942  19.673  1.00  0.00     0.222 N 
ATOM    696  C   ILE    95      -0.805 -31.377  20.592  1.00  0.00     0.000 C 
ATOM    697  C   ILE    95       2.032 -32.351  17.923  1.00  0.00    -0.102 C 
ATOM    698  N   ILE    95       2.030 -33.767  18.247  1.00  0.00     0.222 N 
ATOM    699  C   ILE    95       1.623 -30.035  18.946  1.00  0.00    -0.000 C 
ATOM    700  C   ILE    95      -0.111 -31.874  19.262  1.00  0.00    -0.000 C 
ATOM    701  C   ILE    95       1.397 -31.546  19.107  1.00  0.00     0.008 C 
ATOM    702  O   ILE    95       4.363 -32.142  18.386  1.00  0.00     0.158 OA
ATOM    703  C   ILE    95       3.450 -31.901  17.615  1.00  0.00    -0.286 C 
ATOM    704  O   GLY    96       3.791 -29.691  14.214  1.00  0.00     0.158 OA
ATOM    705  N   GLY    96       3.600 -31.214  16.501  1.00  0.00     0.222 N 
ATOM    706  C   GLY    96       4.884 -30.691  16.072  1.00  0.00    -0.094 C 
ATOM    707  C   GLY    96       4.686 -29.602  15.057  1.00  0.00    -0.287 C 
ATOM    708  C   PHE    97       4.472 -22.959  13.090  1.00  0.00    -0.000 C 
ATOM    709  C   PHE    97       4.003 -23.132  11.810  1.00  0.00     0.000 C 
ATOM    710  C   PHE    97       3.614 -24.382  11.380  1.00  0.00    -0.000 C 
ATOM    711  C   PHE    97       4.535 -24.050  13.966  1.00  0.00     0.000 C 
ATOM    712  C   PHE    97       5.440 -27.429  14.239  1.00  0.00    -0.102 C 
ATOM    713  N   PHE    97       5.482 -28.550  15.168  1.00  0.00     0.222 N 
ATOM    714  C   PHE    97       6.703 -26.635  14.377  1.00  0.00    -0.286 C 
ATOM    715  C   PHE    97       3.677 -25.474  12.252  1.00  0.00     0.000 C 
ATOM    716  C   PHE    97       4.140 -25.318  13.553  1.00  0.00    -0.000 C 
ATOM    717  C   PHE    97       4.225 -26.502  14.495  1.00  0.00     0.008 C 
ATOM    718  O   PHE    97       7.178 -26.411  15.487  1.00  0.00     0.158 OA
ATOM    719  C   MET    98      11.491 -25.446  15.746  1.00  0.00    -0.068 C 
ATOM    720  S   MET    98      11.187 -24.131  14.521  1.00  0.00     0.137 S 
ATOM    721  C   MET    98      10.941 -25.130  13.017  1.00  0.00    -0.074 C 
ATOM    722  C   MET    98       9.695 -26.036  12.996  1.00  0.00     0.013 C 
ATOM    723  O   MET    98       7.890 -24.783  10.932  1.00  0.00     0.159 OA
ATOM    724  C   MET    98       8.094 -24.319  12.058  1.00  0.00    -0.296 C 
ATOM    725  C   MET    98       8.363 -25.289  13.202  1.00  0.00    -0.102 C 
ATOM    726  N   MET    98       7.231 -26.193  13.249  1.00  0.00     0.222 N 
ATOM    727  C   PRO    99       8.240 -22.273  13.597  1.00  0.00    -0.124 C 
ATOM    728  C   PRO    99       7.669 -20.903  13.295  1.00  0.00     0.008 C 
ATOM    729  C   PRO    99       8.906 -22.254  10.087  1.00  0.00    -0.286 C 
ATOM    730  C   PRO    99       7.884 -22.028  11.208  1.00  0.00    -0.112 C 
ATOM    731  C   PRO    99       8.074 -20.669  11.884  1.00  0.00     0.008 C 
ATOM    732  O   PRO    99      10.038 -22.686  10.341  1.00  0.00     0.158 OA
ATOM    733  N   PRO    99       8.070 -22.983  12.312  1.00  0.00     0.356 N 
ATOM    734  N   GLN   100       5.982 -23.243   4.246  1.00  0.00     0.108 N 
ATOM    735  O   GLN   100       7.098 -21.325   3.948  1.00  0.00     0.158 OA
ATOM    736  C   GLN   100       6.766 -22.270   4.676  1.00  0.00    -0.286 C 
ATOM    737  C   GLN   100       8.535 -21.664   6.390  1.00  0.00     0.007 C 
ATOM    738  C   GLN   100       7.219 -22.378   6.111  1.00  0.00     0.020 C 
ATOM    739  O   GLN   100      11.587 -22.221   7.141  1.00  0.00     0.158 OA
ATOM    740  C   GLN   100      10.671 -21.625   7.698  1.00  0.00    -0.286 C 
ATOM    741  C   GLN   100       9.273 -22.206   7.626  1.00  0.00    -0.102 C 
ATOM    742  N   GLN   100       8.486 -21.997   8.845  1.00  0.00     0.222 N 
ATOM    743  O   THR   101      14.371 -20.553   9.147  1.00  0.00     0.158 OA
ATOM    744  C   THR   101      12.027 -18.517   9.355  1.00  0.00    -0.169 C 
ATOM    745  C   THR   101      13.167 -20.746   9.298  1.00  0.00    -0.287 C 
ATOM    746  C   THR   101      12.157 -19.830   8.574  1.00  0.00    -0.089 C 
ATOM    747  N   THR   101      10.847 -20.481   8.399  1.00  0.00     0.222 N 
ATOM    748  C   THR   101      11.215 -17.467   8.627  1.00  0.00     0.012 C 
ATOM    749  O   THR   101      11.455 -18.806  10.624  1.00  0.00     0.152 OA
ATOM    750  O   GLY   102      14.410 -24.806  10.765  1.00  0.00     0.158 OA
ATOM    751  C   GLY   102      13.760 -23.936  10.188  1.00  0.00    -0.287 C 
ATOM    752  C   GLY   102      13.481 -22.614  10.876  1.00  0.00    -0.094 C 
ATOM    753  N   GLY   102      12.661 -21.691  10.096  1.00  0.00     0.222 N 
ATOM    754  C   MET   103      13.798 -25.113   6.715  1.00  0.00    -0.286 C 
ATOM    755  N   MET   103      13.274 -24.103   8.952  1.00  0.00     0.222 N 
ATOM    756  C   MET   103      13.451 -25.346   8.193  1.00  0.00    -0.102 C 
ATOM    757  O   MET   103      13.639 -24.005   6.193  1.00  0.00     0.158 OA
ATOM    758  C   MET   103      11.523 -29.492   8.756  1.00  0.00    -0.068 C 
ATOM    759  C   MET   103      12.187 -26.220   8.301  1.00  0.00     0.013 C 
ATOM    760  C   MET   103      12.038 -26.916   9.639  1.00  0.00    -0.074 C 
ATOM    761  S   MET   103      10.714 -28.138   9.619  1.00  0.00     0.137 S 
ATOM    762  N   GLY   104      14.266 -26.171   6.060  1.00  0.00     0.222 N 
ATOM    763  C   GLY   104      14.568 -26.168   4.633  1.00  0.00    -0.094 C 
ATOM    764  C   GLY   104      15.779 -25.386   4.175  1.00  0.00    -0.287 C 
ATOM    765  O   GLY   104      16.800 -25.371   4.864  1.00  0.00     0.158 OA
ATOM    766  O   ILE   105      18.180 -22.146   2.823  1.00  0.00     0.158 OA
ATOM    767  C   ILE   105      16.564 -23.800   0.774  1.00  0.00     0.008 C 
ATOM    768  C   ILE   105      15.430 -22.810   0.410  1.00  0.00    -0.000 C 
ATOM    769  C   ILE   105      16.428 -25.143   0.061  1.00  0.00    -0.000 C 
ATOM    770  C   ILE   105      15.599 -22.115  -0.959  1.00  0.00     0.000 C 
ATOM    771  C   ILE   105      16.729 -23.981   2.310  1.00  0.00    -0.102 C 
ATOM    772  N   ILE   105      15.674 -24.773   2.967  1.00  0.00     0.222 N 
ATOM    773  C   ILE   105      17.067 -22.665   3.023  1.00  0.00    -0.286 C 
ATOM    774  N   ASN   106      16.113 -22.108   3.820  1.00  0.00     0.222 N 
ATOM    775  C   ASN   106      16.366 -20.884   4.580  1.00  0.00    -0.102 C 
ATOM    776  C   ASN   106      17.544 -21.184   5.520  1.00  0.00    -0.296 C 
ATOM    777  O   ASN   106      17.516 -22.207   6.208  1.00  0.00     0.159 OA
ATOM    778  C   ASN   106      15.133 -20.416   5.358  1.00  0.00     0.028 C 
ATOM    779  C   ASN   106      15.318 -19.052   5.981  1.00  0.00    -0.286 C 
ATOM    780  O   ASN   106      15.399 -18.033   5.292  1.00  0.00     0.158 OA
ATOM    781  N   ASN   106      15.446 -19.005   7.298  1.00  0.00     0.108 N 
ATOM    782  C   PRO   107      20.353 -19.065   4.590  1.00  0.00     0.008 C 
ATOM    783  C   PRO   107      20.817 -19.580   5.923  1.00  0.00     0.008 C 
ATOM    784  N   PRO   107      18.642 -20.395   5.446  1.00  0.00     0.356 N 
ATOM    785  C   PRO   107      18.863 -19.175   4.633  1.00  0.00    -0.124 C 
ATOM    786  C   PRO   107      19.838 -20.709   6.263  1.00  0.00    -0.112 C 
ATOM    787  C   PRO   107      19.577 -20.833   7.756  1.00  0.00    -0.286 C 
ATOM    788  O   PRO   107      18.747 -20.101   8.299  1.00  0.00     0.158 OA
ATOM    789  C   PHE   108      20.203 -20.909  10.689  1.00  0.00    -0.286 C 
ATOM    790  C   PHE   108      20.039 -24.579  12.068  1.00  0.00     0.000 C 
ATOM    791  N   PHE   108      20.209 -21.845   8.380  1.00  0.00     0.222 N 
ATOM    792  C   PHE   108      20.078 -22.165   9.801  1.00  0.00    -0.102 C 
ATOM    793  C   PHE   108      21.021 -23.688  11.643  1.00  0.00    -0.000 C 
ATOM    794  C   PHE   108      21.840 -23.577  13.924  1.00  0.00    -0.000 C 
ATOM    795  C   PHE   108      20.856 -24.458  14.331  1.00  0.00     0.000 C 
ATOM    796  O   PHE   108      19.378 -20.688  11.577  1.00  0.00     0.158 OA
ATOM    797  C   PHE   108      21.099 -23.254  10.195  1.00  0.00     0.008 C 
ATOM    798  C   PHE   108      21.921 -23.195  12.581  1.00  0.00     0.000 C 
ATOM    799  C   PHE   108      19.949 -24.955  13.415  1.00  0.00    -0.000 C 
ATOM    800  C   PHE   109      25.212 -20.451  12.763  1.00  0.00    -0.000 C 
ATOM    801  C   PHE   109      26.391 -20.342  12.060  1.00  0.00     0.000 C 
ATOM    802  C   PHE   109      26.431 -19.602  10.896  1.00  0.00    -0.000 C 
ATOM    803  C   PHE   109      25.282 -18.947  10.443  1.00  0.00     0.000 C 
ATOM    804  C   PHE   109      24.067 -19.779  12.321  1.00  0.00     0.000 C 
ATOM    805  C   PHE   109      22.858 -18.284  10.685  1.00  0.00     0.008 C 
ATOM    806  C   PHE   109      24.082 -19.045  11.142  1.00  0.00    -0.000 C 
ATOM    807  C   PHE   109      20.426 -17.742  10.929  1.00  0.00    -0.286 C 
ATOM    808  O   PHE   109      20.414 -16.786  11.698  1.00  0.00     0.158 OA
ATOM    809  C   PHE   109      21.488 -18.833  11.126  1.00  0.00    -0.102 C 
ATOM    810  N   PHE   109      21.206 -20.073  10.405  1.00  0.00     0.222 N 
ATOM    811  O   ASP   110      20.613 -15.808   8.007  1.00  0.00     0.162 OA
ATOM    812  O   ASP   110      19.574 -16.013   6.076  1.00  0.00     0.162 OA
ATOM    813  O   ASP   110      16.382 -16.087  10.130  1.00  0.00     0.158 OA
ATOM    814  C   ASP   110      18.397 -16.703   8.027  1.00  0.00     0.032 C 
ATOM    815  C   ASP   110      17.207 -16.989  10.251  1.00  0.00    -0.286 C 
ATOM    816  C   ASP   110      19.622 -16.148   7.316  1.00  0.00    -0.347 C 
ATOM    817  C   ASP   110      18.556 -16.851   9.556  1.00  0.00    -0.103 C 
ATOM    818  N   ASP   110      19.572 -17.860   9.893  1.00  0.00     0.222 N 
ATOM    819  N   ALA   111      16.976 -18.085  10.995  1.00  0.00     0.222 N 
ATOM    820  C   ALA   111      15.707 -18.249  11.708  1.00  0.00    -0.101 C 
ATOM    821  C   ALA   111      15.551 -19.679  12.208  1.00  0.00     0.007 C 
ATOM    822  C   ALA   111      15.663 -17.267  12.884  1.00  0.00    -0.296 C 
ATOM    823  O   ALA   111      16.547 -17.331  13.742  1.00  0.00     0.159 OA
ATOM    824  C   PRO   112      14.642 -15.385  14.072  1.00  0.00    -0.112 C 
ATOM    825  N   PRO   112      14.693 -16.319  12.929  1.00  0.00     0.356 N 
ATOM    826  C   PRO   112      13.568 -16.084  12.001  1.00  0.00    -0.124 C 
ATOM    827  C   PRO   112      13.599 -14.335  13.651  1.00  0.00     0.008 C 
ATOM    828  C   PRO   112      14.215 -16.133  15.325  1.00  0.00    -0.286 C 
ATOM    829  O   PRO   112      13.487 -17.127  15.222  1.00  0.00     0.158 OA
ATOM    830  C   PRO   112      13.273 -14.632  12.204  1.00  0.00     0.008 C 
ATOM    831  C   TYR   113      12.850 -16.623  17.984  1.00  0.00    -0.286 C 
ATOM    832  O   TYR   113      14.059 -19.479  23.226  1.00  0.00     0.153 OA
ATOM    833  C   TYR   113      14.296 -18.597  22.212  1.00  0.00    -0.177 C 
ATOM    834  N   TYR   113      14.688 -15.693  16.501  1.00  0.00     0.222 N 
ATOM    835  C   TYR   113      13.797 -17.305  22.266  1.00  0.00     0.012 C 
ATOM    836  O   TYR   113      12.485 -17.714  18.402  1.00  0.00     0.158 OA
ATOM    837  C   TYR   113      14.344 -16.397  17.732  1.00  0.00    -0.102 C 
ATOM    838  C   TYR   113      15.070 -15.864  18.973  1.00  0.00     0.008 C 
ATOM    839  C   TYR   113      14.067 -16.417  21.224  1.00  0.00    -0.000 C 
ATOM    840  C   TYR   113      15.319 -18.109  20.098  1.00  0.00    -0.000 C 
ATOM    841  C   TYR   113      14.856 -16.796  20.140  1.00  0.00    -0.000 C 
ATOM    842  C   TYR   113      15.047 -19.007  21.126  1.00  0.00     0.012 C 
ATOM    843  O   ALA   114       9.148 -17.674  17.706  1.00  0.00     0.158 OA
ATOM    844  C   ALA   114       9.872 -14.446  17.333  1.00  0.00     0.007 C 
ATOM    845  C   ALA   114       9.970 -16.952  17.136  1.00  0.00    -0.286 C 
ATOM    846  N   ALA   114      11.995 -15.621  17.697  1.00  0.00     0.222 N 
ATOM    847  C   ALA   114      10.536 -15.712  17.855  1.00  0.00    -0.102 C 
ATOM    848  N   ASP   115      10.467 -17.239  15.921  1.00  0.00     0.222 N 
ATOM    849  C   ASP   115      10.032 -18.409  15.160  1.00  0.00    -0.103 C 
ATOM    850  O   ASP   115       9.750 -20.634  15.960  1.00  0.00     0.158 OA
ATOM    851  C   ASP   115       9.811 -17.147  12.959  1.00  0.00    -0.347 C 
ATOM    852  C   ASP   115      10.468 -18.298  13.698  1.00  0.00     0.032 C 
ATOM    853  C   ASP   115      10.535 -19.697  15.795  1.00  0.00    -0.286 C 
ATOM    854  O   ASP   115       8.818 -16.589  13.485  1.00  0.00     0.162 OA
ATOM    855  O   ASP   115      10.277 -16.814  11.858  1.00  0.00     0.162 OA
ATOM    856  C   VAL   116      14.724 -20.627  15.809  1.00  0.00    -0.000 C 
ATOM    857  C   VAL   116      14.497 -21.873  17.971  1.00  0.00    -0.000 C 
ATOM    858  C   VAL   116      13.945 -20.733  17.121  1.00  0.00     0.008 C 
ATOM    859  O   VAL   116      11.187 -22.299  18.391  1.00  0.00     0.158 OA
ATOM    860  C   VAL   116      11.627 -21.167  18.156  1.00  0.00    -0.286 C 
ATOM    861  C   VAL   116      12.420 -20.908  16.857  1.00  0.00    -0.102 C 
ATOM    862  N   VAL   116      11.830 -19.741  16.173  1.00  0.00     0.222 N 
ATOM    863  C   SER   117      10.646 -18.802  20.905  1.00  0.00    -0.156 C 
ATOM    864  O   SER   117       8.768 -21.466  20.866  1.00  0.00     0.158 OA
ATOM    865  C   SER   117      10.647 -20.159  20.211  1.00  0.00    -0.089 C 
ATOM    866  C   SER   117       9.224 -20.682  20.038  1.00  0.00    -0.287 C 
ATOM    867  N   SER   117      11.385 -20.098  18.942  1.00  0.00     0.222 N 
ATOM    868  O   SER   117      10.066 -18.926  22.191  1.00  0.00     0.152 OA
ATOM    869  C   LYS   118       7.272 -22.301  18.401  1.00  0.00    -0.286 C 
ATOM    870  C   LYS   118       7.193 -20.774  18.635  1.00  0.00    -0.102 C 
ATOM    871  N   LYS   118       8.532 -20.273  18.957  1.00  0.00     0.222 N 
ATOM    872  O   LYS   118       6.460 -23.055  18.942  1.00  0.00     0.158 OA
ATOM    873  C   LYS   118       3.118 -20.199  15.805  1.00  0.00    -0.105 C 
ATOM    874  C   LYS   118       6.625 -20.079  17.377  1.00  0.00     0.008 C 
ATOM    875  C   LYS   118       5.173 -20.452  17.136  1.00  0.00    -0.001 C 
ATOM    876  C   LYS   118       4.597 -19.916  15.846  1.00  0.00     0.008 C 
ATOM    877  N   LYS   118       2.532 -19.950  14.465  1.00  0.00     0.097 N 
ATOM    878  C   GLY   119       8.798 -24.986  18.429  1.00  0.00    -0.287 C 
ATOM    879  C   GLY   119       8.468 -24.110  17.237  1.00  0.00    -0.094 C 
ATOM    880  O   GLY   119       8.269 -26.090  18.543  1.00  0.00     0.158 OA
ATOM    881  N   GLY   119       8.239 -22.716  17.589  1.00  0.00     0.222 N 
ATOM    882  O   ILE   120       8.562 -26.271  22.211  1.00  0.00     0.158 OA
ATOM    883  C   ILE   120       8.778 -25.257  21.538  1.00  0.00    -0.286 C 
ATOM    884  C   ILE   120      11.287 -24.645  21.194  1.00  0.00     0.008 C 
ATOM    885  C   ILE   120       9.980 -25.214  20.569  1.00  0.00    -0.102 C 
ATOM    886  C   ILE   120      13.908 -24.397  20.759  1.00  0.00     0.000 C 
ATOM    887  C   ILE   120      11.480 -25.110  22.668  1.00  0.00    -0.000 C 
ATOM    888  C   ILE   120      12.515 -25.003  20.295  1.00  0.00    -0.000 C 
ATOM    889  N   ILE   120       9.626 -24.480  19.357  1.00  0.00     0.222 N 
ATOM    890  O   HIS   121       5.494 -26.090  22.879  1.00  0.00     0.158 OA
ATOM    891  C   HIS   121       6.060 -22.759  22.259  1.00  0.00     0.016 C 
ATOM    892  C   HIS   121       5.851 -25.265  22.044  1.00  0.00    -0.286 C 
ATOM    893  C   HIS   121       6.796 -24.115  22.443  1.00  0.00    -0.102 C 
ATOM    894  C   HIS   121       3.489 -21.327  24.310  1.00  0.00    -0.225 C 
ATOM    895  C   HIS   121       4.449 -23.279  24.220  1.00  0.00    -0.106 C 
ATOM    896  N   HIS   121       7.992 -24.167  21.595  1.00  0.00     0.222 N 
ATOM    897  N   HIS   121       3.505 -22.531  24.881  1.00  0.00     0.218 N 
ATOM    898  N   HIS   121       4.368 -21.245  23.324  1.00  0.00     0.219 N 
ATOM    899  C   HIS   121       4.986 -22.478  23.268  1.00  0.00    -0.114 C 
ATOM    900  C   ILE   122       3.307 -23.758  17.506  1.00  0.00     0.000 C 
ATOM    901  C   ILE   122       3.315 -26.965  18.068  1.00  0.00    -0.000 C 
ATOM    902  C   ILE   122       3.349 -24.542  18.840  1.00  0.00    -0.000 C 
ATOM    903  C   ILE   122       4.129 -25.877  18.779  1.00  0.00     0.008 C 
ATOM    904  O   ILE   122       4.458 -28.666  20.564  1.00  0.00     0.158 OA
ATOM    905  C   ILE   122       5.157 -27.726  20.198  1.00  0.00    -0.286 C 
ATOM    906  C   ILE   122       4.587 -26.324  20.201  1.00  0.00    -0.102 C 
ATOM    907  N   ILE   122       5.506 -25.337  20.760  1.00  0.00     0.222 N 
ATOM    908  O   SER   123       7.558 -28.433  17.314  1.00  0.00     0.152 OA
ATOM    909  C   SER   123       8.071 -29.100  18.459  1.00  0.00    -0.156 C 
ATOM    910  O   SER   123       7.766 -31.030  20.885  1.00  0.00     0.158 OA
ATOM    911  C   SER   123       7.667 -29.798  20.837  1.00  0.00    -0.287 C 
ATOM    912  C   SER   123       7.045 -29.165  19.589  1.00  0.00    -0.089 C 
ATOM    913  N   SER   123       6.406 -27.870  19.769  1.00  0.00     0.222 N 
ATOM    914  C   ALA   124      10.265 -29.151  23.014  1.00  0.00     0.007 C 
ATOM    915  C   ALA   124       8.783 -29.543  23.014  1.00  0.00    -0.102 C 
ATOM    916  O   ALA   124       7.823 -30.094  25.118  1.00  0.00     0.158 OA
ATOM    917  C   ALA   124       8.141 -29.188  24.338  1.00  0.00    -0.286 C 
ATOM    918  N   ALA   124       8.104 -28.988  21.825  1.00  0.00     0.222 N 
ATOM    919  C   TYR   125       5.467 -24.857  27.302  1.00  0.00    -0.000 C 
ATOM    920  C   TYR   125       7.564 -25.227  28.383  1.00  0.00    -0.000 C 
ATOM    921  O   TYR   125       5.666 -28.346  27.228  1.00  0.00     0.158 OA
ATOM    922  C   TYR   125       6.782 -25.313  27.233  1.00  0.00    -0.000 C 
ATOM    923  C   TYR   125       7.348 -25.869  25.942  1.00  0.00     0.008 C 
ATOM    924  C   TYR   125       5.987 -27.974  26.099  1.00  0.00    -0.286 C 
ATOM    925  C   TYR   125       7.376 -27.405  25.880  1.00  0.00    -0.102 C 
ATOM    926  N   TYR   125       7.966 -27.875  24.615  1.00  0.00     0.222 N 
ATOM    927  C   TYR   125       5.743 -24.237  29.611  1.00  0.00    -0.177 C 
ATOM    928  O   TYR   125       5.206 -23.719  30.770  1.00  0.00     0.153 OA
ATOM    929  C   TYR   125       4.949 -24.317  28.480  1.00  0.00     0.012 C 
ATOM    930  C   TYR   125       7.048 -24.702  29.573  1.00  0.00     0.012 C 
ATOM    931  O   SER   126       3.620 -29.440  22.781  1.00  0.00     0.152 OA
ATOM    932  C   SER   126       3.144 -28.451  23.679  1.00  0.00    -0.156 C 
ATOM    933  O   SER   126       2.612 -30.400  26.005  1.00  0.00     0.158 OA
ATOM    934  C   SER   126       3.688 -30.007  25.561  1.00  0.00    -0.287 C 
ATOM    935  C   SER   126       3.800 -28.566  25.048  1.00  0.00    -0.089 C 
ATOM    936  N   SER   126       5.164 -28.043  25.018  1.00  0.00     0.222 N 
ATOM    937  C   TYR   127       4.961 -36.608  25.565  1.00  0.00     0.012 C 
ATOM    938  C   TYR   127       6.677 -34.953  26.975  1.00  0.00    -0.000 C 
ATOM    939  C   TYR   127       6.567 -36.299  27.322  1.00  0.00     0.012 C 
ATOM    940  C   TYR   127       5.715 -37.124  26.608  1.00  0.00    -0.177 C 
ATOM    941  O   TYR   127       5.620 -38.451  26.927  1.00  0.00     0.153 OA
ATOM    942  C   TYR   127       5.953 -34.419  25.910  1.00  0.00    -0.000 C 
ATOM    943  C   TYR   127       6.032 -32.946  25.576  1.00  0.00     0.008 C 
ATOM    944  O   TYR   127       3.856 -32.855  28.117  1.00  0.00     0.158 OA
ATOM    945  C   TYR   127       4.645 -32.105  27.526  1.00  0.00    -0.286 C 
ATOM    946  C   TYR   127       4.769 -32.177  25.997  1.00  0.00    -0.102 C 
ATOM    947  N   TYR   127       4.770 -30.804  25.465  1.00  0.00     0.222 N 
ATOM    948  C   TYR   127       5.091 -35.266  25.217  1.00  0.00    -0.000 C 
ATOM    949  C   ALA   128       5.316 -30.882  29.588  1.00  0.00    -0.102 C 
ATOM    950  C   ALA   128       3.955 -30.262  29.928  1.00  0.00    -0.286 C 
ATOM    951  N   ALA   128       5.384 -31.153  28.150  1.00  0.00     0.222 N 
ATOM    952  C   ALA   128       6.434 -29.939  30.000  1.00  0.00     0.007 C 
ATOM    953  O   ALA   128       3.347 -30.652  30.918  1.00  0.00     0.158 OA
ATOM    954  N   SER   129       3.486 -29.307  29.095  1.00  0.00     0.222 N 
ATOM    955  C   SER   129       1.965 -27.663  28.061  1.00  0.00    -0.156 C 
ATOM    956  O   SER   129       2.709 -26.466  28.173  1.00  0.00     0.152 OA
ATOM    957  C   SER   129       2.196 -28.607  29.242  1.00  0.00    -0.089 C 
ATOM    958  C   SER   129       1.032 -29.596  29.281  1.00  0.00    -0.287 C 
ATOM    959  O   SER   129       0.128 -29.438  30.098  1.00  0.00     0.158 OA
ATOM    960  N   MET   130       1.036 -30.583  28.371  1.00  0.00     0.222 N 
ATOM    961  C   MET   130      -0.043 -31.574  28.280  1.00  0.00    -0.102 C 
ATOM    962  C   MET   130      -0.054 -32.480  29.489  1.00  0.00    -0.286 C 
ATOM    963  O   MET   130      -1.119 -32.758  30.028  1.00  0.00     0.158 OA
ATOM    964  C   MET   130       0.061 -32.403  26.988  1.00  0.00     0.013 C 
ATOM    965  C   MET   130      -0.574 -31.746  25.815  1.00  0.00    -0.074 C 
ATOM    966  S   MET   130      -0.774 -32.912  24.443  1.00  0.00     0.137 S 
ATOM    967  C   MET   130      -2.385 -33.459  24.729  1.00  0.00    -0.068 C 
ATOM    968  N   ALA   131       1.128 -32.958  29.887  1.00  0.00     0.222 N 
ATOM    969  C   ALA   131       1.336 -33.814  31.055  1.00  0.00    -0.102 C 
ATOM    970  C   ALA   131       0.880 -33.100  32.331  1.00  0.00    -0.286 C 
ATOM    971  O   ALA   131       0.191 -33.709  33.150  1.00  0.00     0.158 OA
ATOM    972  C   ALA   131       2.807 -34.204  31.154  1.00  0.00     0.007 C 
ATOM    973  C   LYS   132       0.841 -26.396  35.724  1.00  0.00    -0.105 C 
ATOM    974  C   LYS   132       1.205 -27.191  34.487  1.00  0.00     0.008 C 
ATOM    975  N   LYS   132       1.214 -24.965  35.590  1.00  0.00     0.097 N 
ATOM    976  N   LYS   132       1.207 -31.798  32.477  1.00  0.00     0.222 N 
ATOM    977  C   LYS   132       0.780 -30.991  33.631  1.00  0.00    -0.102 C 
ATOM    978  C   LYS   132      -0.764 -30.946  33.705  1.00  0.00    -0.286 C 
ATOM    979  O   LYS   132      -1.341 -31.086  34.783  1.00  0.00     0.158 OA
ATOM    980  C   LYS   132       1.352 -29.556  33.541  1.00  0.00     0.008 C 
ATOM    981  C   LYS   132       0.867 -28.650  34.681  1.00  0.00    -0.001 C 
ATOM    982  C   ALA   133      -3.564 -32.049  32.686  1.00  0.00    -0.286 C 
ATOM    983  N   ALA   133      -1.423 -30.763  32.555  1.00  0.00     0.222 N 
ATOM    984  C   ALA   133      -2.881 -30.694  32.499  1.00  0.00    -0.102 C 
ATOM    985  O   ALA   133      -4.657 -32.098  33.245  1.00  0.00     0.158 OA
ATOM    986  C   ALA   133      -3.320 -30.077  31.179  1.00  0.00     0.007 C 
ATOM    987  C   LEU   134      -3.571 -34.457  32.202  1.00  0.00    -0.102 C 
ATOM    988  N   LEU   134      -2.939 -33.138  32.214  1.00  0.00     0.222 N 
ATOM    989  O   LEU   134      -4.081 -36.252  33.659  1.00  0.00     0.158 OA
ATOM    990  C   LEU   134      -3.226 -35.434  33.304  1.00  0.00    -0.286 C 
ATOM    991  C   LEU   134      -3.823 -34.775  28.311  1.00  0.00     0.000 C 
ATOM    992  C   LEU   134      -5.752 -34.434  29.844  1.00  0.00     0.000 C 
ATOM    993  C   LEU   134      -3.498 -35.096  30.796  1.00  0.00     0.008 C 
ATOM    994  C   LEU   134      -4.245 -34.318  29.695  1.00  0.00    -0.000 C 
ATOM    995  C   LEU   135      -2.622 -36.207  36.154  1.00  0.00    -0.296 C 
ATOM    996  O   LEU   135      -2.915 -37.314  36.596  1.00  0.00     0.159 OA
ATOM    997  C   LEU   135       0.938 -38.060  34.805  1.00  0.00     0.000 C 
ATOM    998  C   LEU   135       2.277 -35.951  35.035  1.00  0.00     0.000 C 
ATOM    999  C   LEU   135      -0.188 -35.919  35.492  1.00  0.00     0.008 C 
ATOM   1000  C   LEU   135       0.923 -36.544  34.657  1.00  0.00    -0.000 C 
ATOM   1001  C   LEU   135      -1.614 -36.191  34.997  1.00  0.00    -0.101 C 
ATOM   1002  N   LEU   135      -2.008 -35.338  33.877  1.00  0.00     0.222 N 
ATOM   1003  C   PRO   136      -3.067 -33.661  36.184  1.00  0.00    -0.124 C 
ATOM   1004  N   PRO   136      -3.258 -35.072  36.588  1.00  0.00     0.356 N 
ATOM   1005  C   PRO   136      -5.501 -36.001  37.334  1.00  0.00    -0.286 C 
ATOM   1006  C   PRO   136      -4.645 -33.697  37.944  1.00  0.00     0.008 C 
ATOM   1007  C   PRO   136      -4.263 -35.162  37.679  1.00  0.00    -0.112 C 
ATOM   1008  O   PRO   136      -6.225 -36.417  38.229  1.00  0.00     0.158 OA
ATOM   1009  C   PRO   136      -3.526 -32.897  37.395  1.00  0.00     0.008 C 
ATOM   1010  N   ILE   137      -5.734 -36.267  36.043  1.00  0.00     0.222 N 
ATOM   1011  C   ILE   137      -8.562 -35.185  35.679  1.00  0.00    -0.000 C 
ATOM   1012  C   ILE   137      -7.943 -36.286  34.810  1.00  0.00     0.008 C 
ATOM   1013  O   ILE   137      -7.108 -38.943  34.077  1.00  0.00     0.158 OA
ATOM   1014  C   ILE   137      -6.867 -37.087  35.609  1.00  0.00    -0.102 C 
ATOM   1015  C   ILE   137      -8.365 -35.636  32.374  1.00  0.00     0.000 C 
ATOM   1016  C   ILE   137      -7.365 -35.713  33.483  1.00  0.00    -0.000 C 
ATOM   1017  C   ILE   137      -6.404 -38.398  34.935  1.00  0.00    -0.286 C 
ATOM   1018  N   MET   138      -5.231 -38.911  35.361  1.00  0.00     0.222 N 
ATOM   1019  C   MET   138      -4.585 -41.223  35.934  1.00  0.00    -0.286 C 
ATOM   1020  S   MET   138      -1.742 -39.398  32.007  1.00  0.00     0.137 S 
ATOM   1021  C   MET   138      -3.353 -39.409  32.817  1.00  0.00    -0.074 C 
ATOM   1022  C   MET   138      -1.728 -41.024  31.326  1.00  0.00    -0.068 C 
ATOM   1023  C   MET   138      -3.282 -39.957  34.219  1.00  0.00     0.013 C 
ATOM   1024  O   MET   138      -4.223 -40.935  37.078  1.00  0.00     0.158 OA
ATOM   1025  C   MET   138      -4.663 -40.160  34.856  1.00  0.00    -0.102 C 
ATOM   1026  N   ASN   139      -4.904 -42.462  35.551  1.00  0.00     0.222 N 
ATOM   1027  C   ASN   139      -4.893 -43.622  36.439  1.00  0.00    -0.102 C 
ATOM   1028  C   ASN   139      -3.490 -44.187  36.639  1.00  0.00    -0.296 C 
ATOM   1029  C   ASN   139      -5.779 -44.725  35.833  1.00  0.00     0.028 C 
ATOM   1030  O   ASN   139      -2.686 -44.125  35.700  1.00  0.00     0.159 OA
ATOM   1031  C   ASN   139      -7.249 -44.501  36.037  1.00  0.00    -0.286 C 
ATOM   1032  O   ASN   139      -7.687 -44.047  37.096  1.00  0.00     0.158 OA
ATOM   1033  N   ASN   139      -8.046 -44.826  35.027  1.00  0.00     0.108 N 
ATOM   1034  O   PRO   140      -2.782 -47.164  36.446  1.00  0.00     0.158 OA
ATOM   1035  C   PRO   140      -4.039 -45.050  39.001  1.00  0.00    -0.124 C 
ATOM   1036  C   PRO   140      -3.027 -45.373  40.051  1.00  0.00     0.008 C 
ATOM   1037  C   PRO   140      -2.008 -46.167  39.352  1.00  0.00     0.008 C 
ATOM   1038  C   PRO   140      -1.779 -46.594  36.867  1.00  0.00    -0.286 C 
ATOM   1039  N   PRO   140      -3.198 -44.840  37.804  1.00  0.00     0.356 N 
ATOM   1040  C   PRO   140      -1.903 -45.527  37.956  1.00  0.00    -0.112 C 
ATOM   1041  O   GLY   141      -0.547 -47.712  32.888  1.00  0.00     0.158 OA
ATOM   1042  N   GLY   141      -0.572 -46.814  36.375  1.00  0.00     0.222 N 
ATOM   1043  C   GLY   141      -0.611 -47.066  33.939  1.00  0.00    -0.287 C 
ATOM   1044  C   GLY   141      -0.369 -47.747  35.276  1.00  0.00    -0.094 C 
ATOM   1045  C   GLY   142      -1.099 -44.914  32.819  1.00  0.00    -0.094 C 
ATOM   1046  N   GLY   142      -0.877 -45.755  33.990  1.00  0.00     0.222 N 
ATOM   1047  C   GLY   142       0.158 -44.709  31.992  1.00  0.00    -0.287 C 
ATOM   1048  O   GLY   142       1.262 -45.036  32.436  1.00  0.00     0.158 OA
ATOM   1049  N   SER   143      -0.006 -44.176  30.771  1.00  0.00     0.222 N 
ATOM   1050  C   SER   143       1.083 -43.996  29.821  1.00  0.00    -0.089 C 
ATOM   1051  C   SER   143       0.909 -42.750  28.954  1.00  0.00    -0.287 C 
ATOM   1052  O   SER   143      -0.148 -42.544  28.363  1.00  0.00     0.158 OA
ATOM   1053  O   SER   143       2.103 -45.091  27.865  1.00  0.00     0.152 OA
ATOM   1054  C   SER   143       1.179 -45.236  28.931  1.00  0.00    -0.156 C 
ATOM   1055  C   ILE   144       2.061 -38.166  31.076  1.00  0.00     0.000 C 
ATOM   1056  C   ILE   144       2.006 -40.728  28.050  1.00  0.00    -0.102 C 
ATOM   1057  N   ILE   144       1.947 -41.915  28.901  1.00  0.00     0.222 N 
ATOM   1058  C   ILE   144       2.392 -39.419  28.814  1.00  0.00     0.008 C 
ATOM   1059  C   ILE   144       1.520 -39.211  30.079  1.00  0.00    -0.000 C 
ATOM   1060  C   ILE   144       2.312 -38.198  27.853  1.00  0.00    -0.000 C 
ATOM   1061  O   ILE   144       4.141 -41.536  27.295  1.00  0.00     0.158 OA
ATOM   1062  C   ILE   144       3.035 -41.052  26.976  1.00  0.00    -0.286 C 
ATOM   1063  C   VAL   145       2.823 -43.563  24.617  1.00  0.00    -0.000 C 
ATOM   1064  C   VAL   145       3.613 -39.855  23.688  1.00  0.00    -0.286 C 
ATOM   1065  N   VAL   145       2.658 -40.838  25.702  1.00  0.00     0.222 N 
ATOM   1066  C   VAL   145       3.544 -41.103  24.567  1.00  0.00    -0.102 C 
ATOM   1067  C   VAL   145       4.201 -42.711  22.688  1.00  0.00    -0.000 C 
ATOM   1068  C   VAL   145       3.127 -42.356  23.730  1.00  0.00     0.008 C 
ATOM   1069  O   VAL   145       2.584 -39.255  23.377  1.00  0.00     0.158 OA
ATOM   1070  O   GLY   146       6.389 -39.913  21.119  1.00  0.00     0.158 OA
ATOM   1071  N   GLY   146       4.821 -39.499  23.278  1.00  0.00     0.222 N 
ATOM   1072  C   GLY   146       5.742 -38.861  21.111  1.00  0.00    -0.287 C 
ATOM   1073  C   GLY   146       5.044 -38.385  22.363  1.00  0.00    -0.094 C 
ATOM   1074  C   MET   147       5.593 -41.098  16.371  1.00  0.00    -0.068 C 
ATOM   1075  C   MET   147       6.252 -38.428  18.750  1.00  0.00    -0.102 C 
ATOM   1076  N   MET   147       5.622 -38.091  20.025  1.00  0.00     0.222 N 
ATOM   1077  C   MET   147       7.562 -37.700  18.572  1.00  0.00    -0.286 C 
ATOM   1078  S   MET   147       4.357 -40.829  17.701  1.00  0.00     0.137 S 
ATOM   1079  C   MET   147       4.054 -39.051  17.548  1.00  0.00    -0.074 C 
ATOM   1080  C   MET   147       5.302 -38.162  17.571  1.00  0.00     0.013 C 
ATOM   1081  O   MET   147       7.619 -36.477  18.682  1.00  0.00     0.158 OA
ATOM   1082  C   ASP   148       9.980 -37.979  18.112  1.00  0.00    -0.103 C 
ATOM   1083  C   ASP   148      10.551 -38.318  16.719  1.00  0.00    -0.286 C 
ATOM   1084  N   ASP   148       8.611 -38.463  18.267  1.00  0.00     0.222 N 
ATOM   1085  O   ASP   148      12.556 -36.948  19.033  1.00  0.00     0.162 OA
ATOM   1086  C   ASP   148      12.282 -38.114  19.398  1.00  0.00    -0.347 C 
ATOM   1087  O   ASP   148      13.118 -38.873  19.939  1.00  0.00     0.162 OA
ATOM   1088  C   ASP   148      10.843 -38.614  19.242  1.00  0.00     0.032 C 
ATOM   1089  O   ASP   148      10.082 -39.238  16.040  1.00  0.00     0.158 OA
ATOM   1090  C   PHE   149      13.822 -38.018  10.208  1.00  0.00     0.000 C 
ATOM   1091  C   PHE   149      14.117 -36.781  10.762  1.00  0.00    -0.000 C 
ATOM   1092  C   PHE   149      13.525 -36.396  11.971  1.00  0.00     0.000 C 
ATOM   1093  C   PHE   149      12.945 -38.867  10.845  1.00  0.00    -0.000 C 
ATOM   1094  C   PHE   149      12.338 -38.474  12.045  1.00  0.00     0.000 C 
ATOM   1095  C   PHE   149      12.624 -37.236  12.620  1.00  0.00    -0.000 C 
ATOM   1096  C   PHE   149      11.984 -36.822  13.933  1.00  0.00     0.008 C 
ATOM   1097  O   PHE   149      14.159 -36.613  15.981  1.00  0.00     0.158 OA
ATOM   1098  C   PHE   149      13.756 -37.686  15.535  1.00  0.00    -0.286 C 
ATOM   1099  C   PHE   149      12.313 -37.804  15.071  1.00  0.00    -0.102 C 
ATOM   1100  N   PHE   149      11.544 -37.551  16.295  1.00  0.00     0.222 N 
ATOM   1101  O   ASP   150      18.662 -41.287  15.582  1.00  0.00     0.162 OA
ATOM   1102  O   ASP   150      18.286 -39.848  17.217  1.00  0.00     0.162 OA
ATOM   1103  O   ASP   150      17.145 -37.569  14.631  1.00  0.00     0.159 OA
ATOM   1104  C   ASP   150      17.922 -40.486  16.189  1.00  0.00    -0.347 C 
ATOM   1105  C   ASP   150      16.740 -37.740  15.779  1.00  0.00    -0.296 C 
ATOM   1106  C   ASP   150      16.495 -40.284  15.669  1.00  0.00     0.032 C 
ATOM   1107  C   ASP   150      15.843 -38.952  16.091  1.00  0.00    -0.102 C 
ATOM   1108  N   ASP   150      14.470 -38.827  15.578  1.00  0.00     0.222 N 
ATOM   1109  O   PRO   151      19.919 -34.788  17.268  1.00  0.00     0.158 OA
ATOM   1110  C   PRO   151      16.668 -35.471  18.656  1.00  0.00     0.008 C 
ATOM   1111  C   PRO   151      17.077 -34.662  17.433  1.00  0.00     0.008 C 
ATOM   1112  C   PRO   151      19.260 -35.815  17.076  1.00  0.00    -0.286 C 
ATOM   1113  C   PRO   151      17.822 -35.682  16.570  1.00  0.00    -0.112 C 
ATOM   1114  N   PRO   151      17.023 -36.889  16.800  1.00  0.00     0.356 N 
ATOM   1115  C   PRO   151      16.556 -36.922  18.202  1.00  0.00    -0.124 C 
ATOM   1116  O   SER   152      21.177 -39.588  17.301  1.00  0.00     0.152 OA
ATOM   1117  C   SER   152      21.277 -38.710  18.403  1.00  0.00    -0.156 C 
ATOM   1118  O   SER   152      23.333 -36.474  17.510  1.00  0.00     0.158 OA
ATOM   1119  C   SER   152      22.227 -36.793  17.032  1.00  0.00    -0.287 C 
ATOM   1120  C   SER   152      21.095 -37.270  17.930  1.00  0.00    -0.089 C 
ATOM   1121  N   SER   152      19.735 -37.053  17.350  1.00  0.00     0.222 N 
ATOM   1122  N   ARG   153      25.462 -40.394  14.279  1.00  0.00     0.225 N 
ATOM   1123  C   ARG   153      24.399 -39.570  13.704  1.00  0.00    -0.114 C 
ATOM   1124  C   ARG   153      24.352 -38.203  14.342  1.00  0.00     0.008 C 
ATOM   1125  C   ARG   153      23.256 -37.339  13.761  1.00  0.00     0.007 C 
ATOM   1126  O   ARG   153      20.943 -35.150  13.750  1.00  0.00     0.158 OA
ATOM   1127  C   ARG   153      22.164 -35.108  13.927  1.00  0.00    -0.286 C 
ATOM   1128  C   ARG   153      22.847 -36.211  14.706  1.00  0.00    -0.102 C 
ATOM   1129  N   ARG   153      21.932 -36.705  15.728  1.00  0.00     0.222 N 
ATOM   1130  N   ARG   153      24.346 -40.851  16.247  1.00  0.00     0.111 N 
ATOM   1131  N   ARG   153      26.438 -41.713  15.896  1.00  0.00     0.111 N 
ATOM   1132  C   ARG   153      25.411 -40.994  15.466  1.00  0.00    -0.341 C 
ATOM   1133  C   ALA   154      23.326 -31.841  12.585  1.00  0.00     0.007 C 
ATOM   1134  O   ALA   154      22.664 -34.561  10.800  1.00  0.00     0.158 OA
ATOM   1135  C   ALA   154      22.069 -33.578  11.251  1.00  0.00    -0.286 C 
ATOM   1136  C   ALA   154      22.374 -33.027  12.665  1.00  0.00    -0.102 C 
ATOM   1137  N   ALA   154      22.942 -34.109  13.470  1.00  0.00     0.222 N 
ATOM   1138  C   MET   155      19.707 -34.673   9.288  1.00  0.00     0.013 C 
ATOM   1139  O   MET   155      19.821 -31.265   8.947  1.00  0.00     0.159 OA
ATOM   1140  C   MET   155      18.360 -34.443   9.853  1.00  0.00    -0.074 C 
ATOM   1141  S   MET   155      17.676 -36.020  10.498  1.00  0.00     0.137 S 
ATOM   1142  C   MET   155      17.369 -35.505  12.139  1.00  0.00    -0.068 C 
ATOM   1143  N   MET   155      21.051 -33.022  10.625  1.00  0.00     0.222 N 
ATOM   1144  C   MET   155      20.249 -32.296   8.417  1.00  0.00    -0.296 C 
ATOM   1145  C   MET   155      20.675 -33.463   9.287  1.00  0.00    -0.102 C 
ATOM   1146  O   PRO   156      17.740 -31.936   6.684  1.00  0.00     0.158 OA
ATOM   1147  C   PRO   156      20.384 -31.711   4.830  1.00  0.00     0.008 C 
ATOM   1148  C   PRO   156      20.379 -33.198   4.897  1.00  0.00     0.008 C 
ATOM   1149  C   PRO   156      20.928 -33.505   6.271  1.00  0.00    -0.124 C 
ATOM   1150  C   PRO   156      20.001 -31.256   6.246  1.00  0.00    -0.112 C 
ATOM   1151  C   PRO   156      18.498 -31.016   6.356  1.00  0.00    -0.286 C 
ATOM   1152  N   PRO   156      20.419 -32.384   7.089  1.00  0.00     0.356 N 
ATOM   1153  N   ALA   157      18.088 -29.763   6.100  1.00  0.00     0.222 N 
ATOM   1154  C   ALA   157      16.705 -29.295   6.014  1.00  0.00    -0.102 C 
ATOM   1155  O   ALA   157      15.173 -28.287   7.515  1.00  0.00     0.158 OA
ATOM   1156  C   ALA   157      15.886 -29.265   7.297  1.00  0.00    -0.286 C 
ATOM   1157  C   ALA   157      15.953 -30.042   4.914  1.00  0.00     0.007 C 
ATOM   1158  C   TYR   158      13.250 -33.160   9.511  1.00  0.00    -0.000 C 
ATOM   1159  C   TYR   158      15.526 -29.293  10.349  1.00  0.00    -0.286 C 
ATOM   1160  C   TYR   158      15.183 -30.407   9.367  1.00  0.00    -0.102 C 
ATOM   1161  O   TYR   158      14.663 -28.866  11.116  1.00  0.00     0.158 OA
ATOM   1162  C   TYR   158      14.581 -34.703   7.632  1.00  0.00     0.012 C 
ATOM   1163  C   TYR   158      15.321 -31.790   9.997  1.00  0.00     0.008 C 
ATOM   1164  C   TYR   158      14.585 -32.877   9.240  1.00  0.00    -0.000 C 
ATOM   1165  C   TYR   158      15.242 -33.665   8.296  1.00  0.00    -0.000 C 
ATOM   1166  C   TYR   158      12.569 -34.169   8.829  1.00  0.00     0.012 C 
ATOM   1167  O   TYR   158      12.566 -35.942   7.237  1.00  0.00     0.153 OA
ATOM   1168  C   TYR   158      13.235 -34.933   7.886  1.00  0.00    -0.177 C 
ATOM   1169  N   TYR   158      15.958 -30.317   8.128  1.00  0.00     0.222 N 
ATOM   1170  N   ASN   159      16.785 -28.828  10.305  1.00  0.00     0.222 N 
ATOM   1171  C   ASN   159      17.330 -27.684  11.036  1.00  0.00    -0.102 C 
ATOM   1172  C   ASN   159      16.818 -27.490  12.455  1.00  0.00    -0.286 C 
ATOM   1173  O   ASN   159      17.101 -28.329  13.299  1.00  0.00     0.158 OA
ATOM   1174  C   ASN   159      17.202 -26.404  10.183  1.00  0.00     0.028 C 
ATOM   1175  O   ASN   159      18.666 -27.418   8.558  1.00  0.00     0.158 OA
ATOM   1176  C   ASN   159      17.931 -26.467   8.856  1.00  0.00    -0.286 C 
ATOM   1177  N   ASN   159      17.738 -25.449   8.032  1.00  0.00     0.108 N 
ATOM   1178  N   TRP   160      16.060 -26.410  12.713  1.00  0.00     0.222 N 
ATOM   1179  C   TRP   160      18.005 -22.386  14.539  1.00  0.00    -0.122 C 
ATOM   1180  C   TRP   160      17.196 -23.682  16.428  1.00  0.00    -0.000 C 
ATOM   1181  C   TRP   160      15.543 -26.081  14.047  1.00  0.00    -0.102 C 
ATOM   1182  N   TRP   160      17.689 -22.217  13.214  1.00  0.00     0.212 N 
ATOM   1183  C   TRP   160      14.508 -27.052  14.566  1.00  0.00    -0.286 C 
ATOM   1184  O   TRP   160      14.324 -27.122  15.785  1.00  0.00     0.158 OA
ATOM   1185  C   TRP   160      18.199 -23.108  17.195  1.00  0.00     0.000 C 
ATOM   1186  C   TRP   160      17.084 -23.314  15.072  1.00  0.00     0.008 C 
ATOM   1187  C   TRP   160      16.611 -23.009  12.904  1.00  0.00    -0.114 C 
ATOM   1188  C   TRP   160      19.103 -22.190  16.638  1.00  0.00    -0.000 C 
ATOM   1189  C   TRP   160      19.004 -21.788  15.321  1.00  0.00     0.008 C 
ATOM   1190  C   TRP   160      15.047 -24.639  14.100  1.00  0.00     0.007 C 
ATOM   1191  C   TRP   160      16.174 -23.662  14.018  1.00  0.00     0.008 C 
ATOM   1192  C   MET   161       8.606 -29.582  13.929  1.00  0.00    -0.068 C 
ATOM   1193  C   MET   161      12.051 -29.437  12.973  1.00  0.00     0.013 C 
ATOM   1194  O   MET   161      13.248 -30.489  15.835  1.00  0.00     0.158 OA
ATOM   1195  C   MET   161      11.088 -30.540  13.431  1.00  0.00    -0.074 C 
ATOM   1196  C   MET   161      12.905 -28.856  14.118  1.00  0.00    -0.102 C 
ATOM   1197  N   MET   161      13.843 -27.830  13.659  1.00  0.00     0.222 N 
ATOM   1198  C   MET   161      13.708 -29.955  14.831  1.00  0.00    -0.286 C 
ATOM   1199  S   MET   161       9.985 -30.072  14.803  1.00  0.00     0.137 S 
ATOM   1200  C   THR   162      15.809 -31.250  14.994  1.00  0.00    -0.089 C 
ATOM   1201  N   THR   162      14.927 -30.256  14.342  1.00  0.00     0.222 N 
ATOM   1202  O   THR   162      16.625 -32.025  12.875  1.00  0.00     0.152 OA
ATOM   1203  C   THR   162      17.052 -31.508  14.127  1.00  0.00    -0.169 C 
ATOM   1204  C   THR   162      16.164 -30.724  16.385  1.00  0.00    -0.287 C 
ATOM   1205  C   THR   162      18.044 -32.469  14.770  1.00  0.00     0.012 C 
ATOM   1206  O   THR   162      16.134 -31.486  17.350  1.00  0.00     0.158 OA
ATOM   1207  C   VAL   163      17.255 -27.301  17.613  1.00  0.00     0.008 C 
ATOM   1208  O   VAL   163      15.775 -29.296  19.898  1.00  0.00     0.158 OA
ATOM   1209  C   VAL   163      17.427 -26.612  18.970  1.00  0.00    -0.000 C 
ATOM   1210  C   VAL   163      18.545 -27.220  16.787  1.00  0.00    -0.000 C 
ATOM   1211  C   VAL   163      15.593 -28.927  18.731  1.00  0.00    -0.286 C 
ATOM   1212  C   VAL   163      16.797 -28.784  17.784  1.00  0.00    -0.102 C 
ATOM   1213  N   VAL   163      16.489 -29.416  16.487  1.00  0.00     0.222 N 
ATOM   1214  C   ALA   164      11.922 -28.401  18.187  1.00  0.00     0.007 C 
ATOM   1215  C   ALA   164      12.958 -30.295  19.480  1.00  0.00    -0.286 C 
ATOM   1216  O   ALA   164      12.570 -30.505  20.621  1.00  0.00     0.158 OA
ATOM   1217  C   ALA   164      13.131 -28.839  19.000  1.00  0.00    -0.102 C 
ATOM   1218  N   ALA   164      14.366 -28.697  18.213  1.00  0.00     0.222 N 
ATOM   1219  N   LYS   165      13.310 -31.294  18.628  1.00  0.00     0.222 N 
ATOM   1220  C   LYS   165      13.372 -33.633  17.795  1.00  0.00     0.008 C 
ATOM   1221  O   LYS   165      13.925 -33.814  21.000  1.00  0.00     0.158 OA
ATOM   1222  C   LYS   165       9.759 -34.112  16.427  1.00  0.00    -0.105 C 
ATOM   1223  C   LYS   165      10.846 -33.938  17.475  1.00  0.00     0.008 C 
ATOM   1224  C   LYS   165      12.183 -33.556  16.812  1.00  0.00    -0.001 C 
ATOM   1225  C   LYS   165      14.248 -33.058  20.081  1.00  0.00    -0.286 C 
ATOM   1226  C   LYS   165      13.223 -32.713  19.007  1.00  0.00    -0.102 C 
ATOM   1227  N   LYS   165       8.423 -34.200  17.066  1.00  0.00     0.097 N 
ATOM   1228  O   SER   166      18.349 -32.577  19.585  1.00  0.00     0.152 OA
ATOM   1229  C   SER   166      17.774 -31.983  20.736  1.00  0.00    -0.156 C 
ATOM   1230  C   SER   166      15.934 -32.192  22.399  1.00  0.00    -0.287 C 
ATOM   1231  O   SER   166      16.120 -32.862  23.425  1.00  0.00     0.158 OA
ATOM   1232  C   SER   166      16.466 -32.693  21.063  1.00  0.00    -0.089 C 
ATOM   1233  N   SER   166      15.471 -32.475  20.003  1.00  0.00     0.222 N 
ATOM   1234  C   ALA   167      13.517 -31.307  24.084  1.00  0.00    -0.286 C 
ATOM   1235  C   ALA   167      14.165 -29.017  23.280  1.00  0.00     0.007 C 
ATOM   1236  O   ALA   167      13.399 -31.528  25.289  1.00  0.00     0.158 OA
ATOM   1237  C   ALA   167      14.668 -30.420  23.593  1.00  0.00    -0.102 C 
ATOM   1238  N   ALA   167      15.257 -31.023  22.385  1.00  0.00     0.222 N 
ATOM   1239  C   LEU   168      12.082 -34.006  24.227  1.00  0.00    -0.286 C 
ATOM   1240  C   LEU   168      11.590 -32.760  23.465  1.00  0.00    -0.102 C 
ATOM   1241  N   LEU   168      12.697 -31.847  23.143  1.00  0.00     0.222 N 
ATOM   1242  O   LEU   168      11.447 -34.417  25.203  1.00  0.00     0.158 OA
ATOM   1243  C   LEU   168       8.584 -33.733  23.216  1.00  0.00     0.000 C 
ATOM   1244  C   LEU   168      10.848 -33.180  22.178  1.00  0.00     0.008 C 
ATOM   1245  C   LEU   168       9.147 -34.606  20.972  1.00  0.00     0.000 C 
ATOM   1246  C   LEU   168       9.720 -34.237  22.321  1.00  0.00    -0.000 C 
ATOM   1247  O   GLU   169      16.849 -37.411  21.868  1.00  0.00     0.162 OA
ATOM   1248  O   GLU   169      15.399 -38.389  20.542  1.00  0.00     0.162 OA
ATOM   1249  C   GLU   169      15.676 -37.627  21.493  1.00  0.00    -0.347 C 
ATOM   1250  C   GLU   169      14.533 -36.965  22.245  1.00  0.00     0.024 C 
ATOM   1251  C   GLU   169      14.942 -36.369  23.582  1.00  0.00     0.007 C 
ATOM   1252  O   GLU   169      13.935 -36.275  26.724  1.00  0.00     0.158 OA
ATOM   1253  N   GLU   169      13.172 -34.637  23.742  1.00  0.00     0.222 N 
ATOM   1254  C   GLU   169      13.746 -35.829  24.386  1.00  0.00    -0.102 C 
ATOM   1255  C   GLU   169      14.166 -35.490  25.816  1.00  0.00    -0.286 C 
ATOM   1256  O   SER   170      16.882 -32.450  28.341  1.00  0.00     0.152 OA
ATOM   1257  C   SER   170      15.976 -32.572  27.256  1.00  0.00    -0.156 C 
ATOM   1258  O   SER   170      13.854 -34.093  29.357  1.00  0.00     0.158 OA
ATOM   1259  C   SER   170      13.915 -33.619  28.218  1.00  0.00    -0.287 C 
ATOM   1260  C   SER   170      15.166 -33.858  27.357  1.00  0.00    -0.089 C 
ATOM   1261  N   SER   170      14.753 -34.297  26.020  1.00  0.00     0.222 N 
ATOM   1262  C   VAL   171      11.146 -30.418  27.357  1.00  0.00    -0.000 C 
ATOM   1263  C   VAL   171       9.213 -31.837  28.136  1.00  0.00    -0.000 C 
ATOM   1264  C   VAL   171      10.625 -31.844  27.517  1.00  0.00     0.008 C 
ATOM   1265  C   VAL   171      11.615 -32.688  28.367  1.00  0.00    -0.102 C 
ATOM   1266  N   VAL   171      12.886 -32.948  27.647  1.00  0.00     0.222 N 
ATOM   1267  C   VAL   171      10.997 -34.008  28.819  1.00  0.00    -0.286 C 
ATOM   1268  O   VAL   171      10.561 -34.121  29.957  1.00  0.00     0.158 OA
ATOM   1269  N   ASN   172      10.987 -35.008  27.934  1.00  0.00     0.222 N 
ATOM   1270  C   ASN   172      10.578 -37.249  26.989  1.00  0.00     0.028 C 
ATOM   1271  O   ASN   172      10.311 -37.562  30.269  1.00  0.00     0.158 OA
ATOM   1272  C   ASN   172      11.032 -36.978  29.476  1.00  0.00    -0.286 C 
ATOM   1273  C   ASN   172      10.432 -36.333  28.228  1.00  0.00    -0.102 C 
ATOM   1274  N   ASN   172      11.077 -39.618  26.930  1.00  0.00     0.108 N 
ATOM   1275  O   ASN   172       9.080 -38.969  27.700  1.00  0.00     0.158 OA
ATOM   1276  C   ASN   172      10.176 -38.685  27.225  1.00  0.00    -0.286 C 
ATOM   1277  N   ARG   173      18.109 -36.055  27.165  1.00  0.00     0.111 N 
ATOM   1278  C   ARG   173      17.435 -37.111  27.592  1.00  0.00    -0.341 C 
ATOM   1279  N   ARG   173      17.050 -38.037  26.714  1.00  0.00     0.111 N 
ATOM   1280  N   ARG   173      17.145 -37.242  28.887  1.00  0.00     0.225 N 
ATOM   1281  C   ARG   173      16.497 -38.408  29.494  1.00  0.00    -0.114 C 
ATOM   1282  C   ARG   173      14.985 -38.319  29.526  1.00  0.00     0.008 C 
ATOM   1283  C   ARG   173      14.533 -37.414  30.651  1.00  0.00     0.007 C 
ATOM   1284  C   ARG   173      12.575 -36.801  32.135  1.00  0.00    -0.286 C 
ATOM   1285  O   ARG   173      12.512 -37.465  33.164  1.00  0.00     0.158 OA
ATOM   1286  C   ARG   173      13.013 -37.458  30.827  1.00  0.00    -0.102 C 
ATOM   1287  N   ARG   173      12.351 -36.880  29.655  1.00  0.00     0.222 N 
ATOM   1288  C   PHE   174      15.173 -32.461  34.959  1.00  0.00    -0.000 C 
ATOM   1289  C   PHE   174      14.303 -32.802  32.351  1.00  0.00     0.000 C 
ATOM   1290  C   PHE   174      13.830 -32.743  34.695  1.00  0.00     0.000 C 
ATOM   1291  C   PHE   174      13.385 -32.924  33.388  1.00  0.00    -0.000 C 
ATOM   1292  C   PHE   174      11.957 -33.297  33.109  1.00  0.00     0.008 C 
ATOM   1293  O   PHE   174       9.843 -35.187  34.612  1.00  0.00     0.158 OA
ATOM   1294  N   PHE   174      12.239 -35.505  32.087  1.00  0.00     0.222 N 
ATOM   1295  C   PHE   174      10.273 -35.080  33.468  1.00  0.00    -0.286 C 
ATOM   1296  C   PHE   174      11.732 -34.792  33.256  1.00  0.00    -0.102 C 
ATOM   1297  C   PHE   174      16.062 -32.310  33.915  1.00  0.00     0.000 C 
ATOM   1298  C   PHE   174      15.633 -32.469  32.615  1.00  0.00    -0.000 C 
ATOM   1299  C   VAL   175       7.967 -36.930  33.150  1.00  0.00    -0.286 C 
ATOM   1300  C   VAL   175       8.071 -35.555  32.489  1.00  0.00    -0.102 C 
ATOM   1301  N   VAL   175       9.497 -35.218  32.379  1.00  0.00     0.222 N 
ATOM   1302  C   VAL   175       7.323 -35.485  31.126  1.00  0.00     0.008 C 
ATOM   1303  C   VAL   175       5.913 -36.071  31.236  1.00  0.00    -0.000 C 
ATOM   1304  O   VAL   175       7.111 -37.116  34.012  1.00  0.00     0.158 OA
ATOM   1305  C   VAL   175       7.270 -34.048  30.607  1.00  0.00    -0.000 C 
ATOM   1306  N   ALA   176       8.892 -37.866  32.802  1.00  0.00     0.222 N 
ATOM   1307  C   ALA   176       8.931 -39.194  33.419  1.00  0.00    -0.102 C 
ATOM   1308  O   ALA   176       8.387 -39.889  35.659  1.00  0.00     0.158 OA
ATOM   1309  C   ALA   176       9.049 -39.112  34.964  1.00  0.00    -0.286 C 
ATOM   1310  C   ALA   176      10.082 -39.995  32.851  1.00  0.00     0.007 C 
ATOM   1311  C   ARG   177      11.084 -36.828  37.211  1.00  0.00     0.007 C 
ATOM   1312  N   ARG   177      15.000 -36.359  40.357  1.00  0.00     0.111 N 
ATOM   1313  N   ARG   177      15.654 -37.141  38.302  1.00  0.00     0.111 N 
ATOM   1314  N   ARG   177       9.873 -38.168  35.489  1.00  0.00     0.222 N 
ATOM   1315  C   ARG   177      13.413 -35.912  37.057  1.00  0.00    -0.114 C 
ATOM   1316  N   ARG   177      13.725 -35.877  38.495  1.00  0.00     0.225 N 
ATOM   1317  C   ARG   177      10.063 -37.951  36.933  1.00  0.00    -0.102 C 
ATOM   1318  C   ARG   177      12.479 -37.053  36.669  1.00  0.00     0.008 C 
ATOM   1319  O   ARG   177       8.358 -38.098  38.600  1.00  0.00     0.158 OA
ATOM   1320  C   ARG   177      14.791 -36.456  39.050  1.00  0.00    -0.341 C 
ATOM   1321  C   ARG   177       8.743 -37.547  37.573  1.00  0.00    -0.286 C 
ATOM   1322  C   GLU   178       7.733 -33.337  38.299  1.00  0.00    -0.347 C 
ATOM   1323  O   GLU   178       8.949 -33.356  38.598  1.00  0.00     0.162 OA
ATOM   1324  C   GLU   178       7.333 -33.664  36.871  1.00  0.00     0.024 C 
ATOM   1325  O   GLU   178       6.827 -33.129  39.136  1.00  0.00     0.162 OA
ATOM   1326  C   GLU   178       5.663 -37.163  37.347  1.00  0.00    -0.286 C 
ATOM   1327  N   GLU   178       8.046 -36.574  36.963  1.00  0.00     0.222 N 
ATOM   1328  C   GLU   178       6.752 -36.096  37.476  1.00  0.00    -0.102 C 
ATOM   1329  C   GLU   178       6.331 -34.805  36.741  1.00  0.00     0.007 C 
ATOM   1330  O   GLU   178       4.943 -37.414  38.312  1.00  0.00     0.158 OA
ATOM   1331  N   ALA   179       5.566 -37.810  36.168  1.00  0.00     0.222 N 
ATOM   1332  C   ALA   179       4.593 -39.241  34.400  1.00  0.00     0.007 C 
ATOM   1333  O   ALA   179       3.699 -40.684  37.157  1.00  0.00     0.158 OA
ATOM   1334  C   ALA   179       4.556 -38.847  35.877  1.00  0.00    -0.102 C 
ATOM   1335  C   ALA   179       4.707 -40.078  36.782  1.00  0.00    -0.286 C 
ATOM   1336  C   GLY   180       5.499 -41.443  39.398  1.00  0.00    -0.287 C 
ATOM   1337  N   GLY   180       5.949 -40.398  37.166  1.00  0.00     0.222 N 
ATOM   1338  O   GLY   180       5.089 -42.478  39.934  1.00  0.00     0.158 OA
ATOM   1339  C   GLY   180       6.240 -41.508  38.072  1.00  0.00    -0.094 C 
ATOM   1340  C   LYS   181       6.054 -37.885  41.660  1.00  0.00    -0.001 C 
ATOM   1341  C   LYS   181       7.369 -35.744  41.968  1.00  0.00    -0.105 C 
ATOM   1342  N   LYS   181       7.314 -34.262  41.872  1.00  0.00     0.097 N 
ATOM   1343  C   LYS   181       6.009 -36.360  41.746  1.00  0.00     0.008 C 
ATOM   1344  C   LYS   181       4.640 -38.453  41.550  1.00  0.00     0.008 C 
ATOM   1345  N   LYS   181       5.290 -40.216  39.922  1.00  0.00     0.222 N 
ATOM   1346  O   LYS   181       2.435 -40.593  42.090  1.00  0.00     0.158 OA
ATOM   1347  C   LYS   181       3.086 -40.357  41.072  1.00  0.00    -0.286 C 
ATOM   1348  C   LYS   181       4.565 -39.949  41.183  1.00  0.00    -0.102 C 
ATOM   1349  C   TYR   182       1.166 -40.832  39.580  1.00  0.00    -0.102 C 
ATOM   1350  N   TYR   182       2.555 -40.436  39.835  1.00  0.00     0.222 N 
ATOM   1351  C   TYR   182      -0.860 -38.010  39.224  1.00  0.00    -0.000 C 
ATOM   1352  C   TYR   182       0.590 -39.937  38.458  1.00  0.00     0.008 C 
ATOM   1353  C   TYR   182       0.392 -38.485  38.842  1.00  0.00    -0.000 C 
ATOM   1354  C   TYR   182       1.097 -42.316  39.146  1.00  0.00    -0.286 C 
ATOM   1355  C   TYR   182       1.436 -37.571  38.752  1.00  0.00    -0.000 C 
ATOM   1356  O   TYR   182       0.025 -42.802  38.807  1.00  0.00     0.158 OA
ATOM   1357  C   TYR   182       0.005 -35.785  39.489  1.00  0.00    -0.177 C 
ATOM   1358  C   TYR   182       1.255 -36.231  39.092  1.00  0.00     0.012 C 
ATOM   1359  C   TYR   182      -1.055 -36.673  39.561  1.00  0.00     0.012 C 
ATOM   1360  O   TYR   182      -0.191 -34.462  39.808  1.00  0.00     0.153 OA
ATOM   1361  N   GLY   183       2.248 -42.993  39.096  1.00  0.00     0.222 N 
ATOM   1362  C   GLY   183       2.351 -44.367  38.609  1.00  0.00    -0.094 C 
ATOM   1363  C   GLY   183       2.191 -44.414  37.095  1.00  0.00    -0.287 C 
ATOM   1364  O   GLY   183       1.729 -45.417  36.540  1.00  0.00     0.158 OA
ATOM   1365  O   VAL   184       4.696 -42.541  34.822  1.00  0.00     0.158 OA
ATOM   1366  C   VAL   184       1.553 -41.840  34.667  1.00  0.00     0.008 C 
ATOM   1367  C   VAL   184       1.541 -41.472  33.176  1.00  0.00    -0.000 C 
ATOM   1368  C   VAL   184       2.385 -43.127  34.968  1.00  0.00    -0.102 C 
ATOM   1369  C   VAL   184       3.747 -43.119  34.290  1.00  0.00    -0.286 C 
ATOM   1370  C   VAL   184       0.118 -41.967  35.195  1.00  0.00    -0.000 C 
ATOM   1371  N   VAL   184       2.548 -43.304  36.418  1.00  0.00     0.222 N 
ATOM   1372  C   ARG   185       5.198 -45.131  31.547  1.00  0.00     0.007 C 
ATOM   1373  C   ARG   185       5.508 -46.302  32.503  1.00  0.00     0.008 C 
ATOM   1374  N   ARG   185       3.838 -43.761  33.113  1.00  0.00     0.222 N 
ATOM   1375  C   ARG   185       5.055 -43.782  32.287  1.00  0.00    -0.102 C 
ATOM   1376  C   ARG   185       5.004 -42.642  31.269  1.00  0.00    -0.286 C 
ATOM   1377  O   ARG   185       3.922 -42.164  30.923  1.00  0.00     0.158 OA
ATOM   1378  C   ARG   185       5.282 -47.634  31.826  1.00  0.00    -0.114 C 
ATOM   1379  N   ARG   185       3.859 -47.876  31.592  1.00  0.00     0.225 N 
ATOM   1380  C   ARG   185       3.339 -48.246  30.429  1.00  0.00    -0.341 C 
ATOM   1381  N   ARG   185       4.121 -48.452  29.381  1.00  0.00     0.111 N 
ATOM   1382  N   ARG   185       2.032 -48.420  30.308  1.00  0.00     0.111 N 
ATOM   1383  N   SER   186       6.181 -42.195  30.804  1.00  0.00     0.222 N 
ATOM   1384  C   SER   186       6.309 -41.163  29.781  1.00  0.00    -0.089 C 
ATOM   1385  C   SER   186       7.400 -41.613  28.850  1.00  0.00    -0.287 C 
ATOM   1386  O   SER   186       8.530 -41.813  29.298  1.00  0.00     0.158 OA
ATOM   1387  C   SER   186       6.668 -39.809  30.391  1.00  0.00    -0.156 C 
ATOM   1388  O   SER   186       6.911 -38.864  29.361  1.00  0.00     0.152 OA
ATOM   1389  C   ASN   187       8.468 -44.489  27.653  1.00  0.00    -0.286 C 
ATOM   1390  O   ASN   187       9.654 -44.527  27.973  1.00  0.00     0.158 OA
ATOM   1391  C   ASN   187       8.024 -43.739  26.432  1.00  0.00     0.028 C 
ATOM   1392  N   ASN   187       7.084 -41.767  27.553  1.00  0.00     0.222 N 
ATOM   1393  N   ASN   187       7.528 -45.074  28.382  1.00  0.00     0.108 N 
ATOM   1394  C   ASN   187       7.853 -41.574  25.255  1.00  0.00    -0.286 C 
ATOM   1395  O   ASN   187       6.777 -41.037  25.005  1.00  0.00     0.158 OA
ATOM   1396  C   ASN   187       8.080 -42.216  26.586  1.00  0.00    -0.102 C 
ATOM   1397  C   LEU   188      10.974 -37.911  23.229  1.00  0.00     0.000 C 
ATOM   1398  C   LEU   188       9.814 -38.799  23.601  1.00  0.00    -0.000 C 
ATOM   1399  C   LEU   188       8.495 -38.005  23.557  1.00  0.00     0.000 C 
ATOM   1400  C   LEU   188       8.879 -42.276  22.048  1.00  0.00    -0.286 C 
ATOM   1401  O   LEU   188       9.585 -43.251  22.317  1.00  0.00     0.158 OA
ATOM   1402  C   LEU   188       8.737 -41.141  23.022  1.00  0.00    -0.102 C 
ATOM   1403  C   LEU   188       9.776 -40.052  22.688  1.00  0.00     0.008 C 
ATOM   1404  N   LEU   188       8.863 -41.635  24.390  1.00  0.00     0.222 N 
ATOM   1405  N   VAL   189       8.189 -42.158  20.912  1.00  0.00     0.222 N 
ATOM   1406  C   VAL   189       8.364 -43.066  19.785  1.00  0.00    -0.102 C 
ATOM   1407  O   VAL   189       8.611 -41.235  18.237  1.00  0.00     0.158 OA
ATOM   1408  C   VAL   189       9.124 -42.249  18.735  1.00  0.00    -0.286 C 
ATOM   1409  C   VAL   189       6.398 -44.594  20.257  1.00  0.00    -0.000 C 
ATOM   1410  C   VAL   189       7.066 -43.697  19.218  1.00  0.00     0.008 C 
ATOM   1411  C   VAL   189       7.362 -44.495  17.941  1.00  0.00    -0.000 C 
ATOM   1412  C   ALA   190      10.825 -42.753  16.083  1.00  0.00    -0.286 C 
ATOM   1413  C   ALA   190      12.634 -42.063  17.714  1.00  0.00     0.007 C 
ATOM   1414  O   ALA   190      11.207 -43.905  15.905  1.00  0.00     0.158 OA
ATOM   1415  C   ALA   190      11.141 -42.024  17.388  1.00  0.00    -0.102 C 
ATOM   1416  N   ALA   190      10.357 -42.671  18.432  1.00  0.00     0.222 N 
ATOM   1417  C   ALA   191      10.558 -42.407  12.828  1.00  0.00    -0.286 C 
ATOM   1418  O   ALA   191      11.218 -41.372  12.841  1.00  0.00     0.158 OA
ATOM   1419  C   ALA   191       8.207 -42.286  13.607  1.00  0.00     0.007 C 
ATOM   1420  C   ALA   191       9.621 -42.736  13.969  1.00  0.00    -0.102 C 
ATOM   1421  N   ALA   191      10.034 -42.115  15.219  1.00  0.00     0.222 N 
ATOM   1422  N   GLY   192      10.556 -43.270  11.819  1.00  0.00     0.222 N 
ATOM   1423  O   GLY   192       9.306 -41.651  10.249  1.00  0.00     0.159 OA
ATOM   1424  C   GLY   192      11.248 -43.017  10.567  1.00  0.00    -0.094 C 
ATOM   1425  C   GLY   192      10.417 -41.997   9.803  1.00  0.00    -0.296 C 
ATOM   1426  C   PRO   193       8.777 -41.044   7.389  1.00  0.00    -0.286 C 
ATOM   1427  N   PRO   193      10.895 -41.510   8.641  1.00  0.00     0.356 N 
ATOM   1428  O   PRO   193       8.692 -42.180   6.930  1.00  0.00     0.158 OA
ATOM   1429  C   PRO   193      12.333 -40.727   6.966  1.00  0.00     0.008 C 
ATOM   1430  C   PRO   193      12.172 -41.830   7.966  1.00  0.00    -0.124 C 
ATOM   1431  C   PRO   193      11.016 -40.089   6.723  1.00  0.00     0.008 C 
ATOM   1432  C   PRO   193      10.106 -40.510   7.888  1.00  0.00    -0.112 C 
ATOM   1433  C   ILE   194       5.848 -42.114   9.198  1.00  0.00    -0.000 C 
ATOM   1434  C   ILE   194       5.696 -43.512   8.418  1.00  0.00     0.000 C 
ATOM   1435  C   ILE   194       3.914 -40.869   7.978  1.00  0.00    -0.000 C 
ATOM   1436  N   ILE   194       7.734 -40.237   7.535  1.00  0.00     0.222 N 
ATOM   1437  C   ILE   194       6.384 -40.626   7.138  1.00  0.00    -0.102 C 
ATOM   1438  O   ILE   194       5.902 -38.386   6.486  1.00  0.00     0.158 OA
ATOM   1439  C   ILE   194       5.848 -39.582   6.183  1.00  0.00    -0.286 C 
ATOM   1440  C   ILE   194       5.446 -40.849   8.381  1.00  0.00     0.008 C 
ATOM   1441  N   ARG   195       8.654 -38.954  -1.414  1.00  0.00     0.111 N 
ATOM   1442  N   ARG   195       6.365 -38.863  -1.380  1.00  0.00     0.111 N 
ATOM   1443  N   ARG   195       5.333 -40.044   5.039  1.00  0.00     0.222 N 
ATOM   1444  C   ARG   195       4.733 -39.219   4.006  1.00  0.00    -0.102 C 
ATOM   1445  C   ARG   195       5.913 -40.059   1.907  1.00  0.00     0.008 C 
ATOM   1446  C   ARG   195       6.363 -38.689   1.435  1.00  0.00    -0.114 C 
ATOM   1447  O   ARG   195       2.346 -39.005   3.899  1.00  0.00     0.158 OA
ATOM   1448  C   ARG   195       4.601 -39.986   2.668  1.00  0.00     0.007 C 
ATOM   1449  C   ARG   195       3.395 -38.620   4.421  1.00  0.00    -0.286 C 
ATOM   1450  N   ARG   195       7.549 -38.781   0.595  1.00  0.00     0.225 N 
ATOM   1451  C   ARG   195       7.523 -38.867  -0.729  1.00  0.00    -0.341 C 
ATOM   1452  N   THR   196       3.435 -37.651   5.339  1.00  0.00     0.222 N 
ATOM   1453  C   THR   196       2.241 -36.912   5.740  1.00  0.00    -0.089 C 
ATOM   1454  O   THR   196       2.875 -35.717   3.768  1.00  0.00     0.158 OA
ATOM   1455  C   THR   196       2.021 -35.860   4.659  1.00  0.00    -0.287 C 
ATOM   1456  C   THR   196       2.453 -36.214   7.084  1.00  0.00    -0.169 C 
ATOM   1457  O   THR   196       3.598 -35.361   6.987  1.00  0.00     0.152 OA
ATOM   1458  C   THR   196       2.559 -37.191   8.248  1.00  0.00     0.012 C 
ATOM   1459  C   LEU   197       1.813 -33.028   3.758  1.00  0.00    -0.286 C 
ATOM   1460  N   LEU   197       0.916 -35.099   4.743  1.00  0.00     0.222 N 
ATOM   1461  C   LEU   197       0.642 -34.033   3.774  1.00  0.00    -0.102 C 
ATOM   1462  C   LEU   197      -2.619 -31.841   3.473  1.00  0.00     0.000 C 
ATOM   1463  C   LEU   197      -1.193 -32.827   1.630  1.00  0.00     0.000 C 
ATOM   1464  C   LEU   197      -0.715 -33.357   4.074  1.00  0.00     0.008 C 
ATOM   1465  O   LEU   197       2.361 -32.771   2.690  1.00  0.00     0.158 OA
ATOM   1466  C   LEU   197      -1.227 -32.311   3.083  1.00  0.00    -0.000 C 
ATOM   1467  N   ALA   198       2.278 -32.586   4.942  1.00  0.00     0.222 N 
ATOM   1468  C   ALA   198       3.425 -31.673   5.085  1.00  0.00    -0.102 C 
ATOM   1469  C   ALA   198       3.650 -31.339   6.552  1.00  0.00     0.007 C 
ATOM   1470  C   ALA   198       4.711 -32.234   4.482  1.00  0.00    -0.286 C 
ATOM   1471  O   ALA   198       5.429 -31.500   3.808  1.00  0.00     0.158 OA
ATOM   1472  S   MET   199       9.078 -35.780   4.618  1.00  0.00     0.137 S 
ATOM   1473  C   MET   199       9.392 -36.642   6.165  1.00  0.00    -0.068 C 
ATOM   1474  C   MET   199       7.453 -36.430   4.216  1.00  0.00    -0.074 C 
ATOM   1475  O   MET   199       7.188 -33.935   2.024  1.00  0.00     0.158 OA
ATOM   1476  C   MET   199       6.335 -35.596   4.813  1.00  0.00     0.013 C 
ATOM   1477  C   MET   199       6.183 -34.254   2.667  1.00  0.00    -0.286 C 
ATOM   1478  C   MET   199       6.206 -34.193   4.205  1.00  0.00    -0.102 C 
ATOM   1479  N   MET   199       5.005 -33.524   4.723  1.00  0.00     0.222 N 
ATOM   1480  O   SER   200       5.794 -33.221  -0.978  1.00  0.00     0.158 OA
ATOM   1481  O   SER   200       3.396 -36.635   0.667  1.00  0.00     0.152 OA
ATOM   1482  C   SER   200       3.485 -35.276   0.274  1.00  0.00    -0.156 C 
ATOM   1483  C   SER   200       5.083 -33.341   0.021  1.00  0.00    -0.287 C 
ATOM   1484  C   SER   200       4.862 -34.729   0.632  1.00  0.00    -0.089 C 
ATOM   1485  N   SER   200       5.034 -34.659   2.089  1.00  0.00     0.222 N 
ATOM   1486  C   ALA   201       3.913 -29.985   1.211  1.00  0.00     0.007 C 
ATOM   1487  O   ALA   201       6.642 -29.889  -0.721  1.00  0.00     0.158 OA
ATOM   1488  C   ALA   201       6.197 -30.494   0.254  1.00  0.00    -0.286 C 
ATOM   1489  C   ALA   201       4.709 -30.895   0.276  1.00  0.00    -0.102 C 
ATOM   1490  N   ALA   201       4.548 -32.292   0.683  1.00  0.00     0.222 N 
ATOM   1491  C   ILE   202       8.456 -30.481   5.296  1.00  0.00     0.000 C 
ATOM   1492  C   ILE   202      10.532 -30.526   2.784  1.00  0.00    -0.000 C 
ATOM   1493  C   ILE   202       8.279 -29.990   3.830  1.00  0.00    -0.000 C 
ATOM   1494  C   ILE   202       9.018 -30.838   2.776  1.00  0.00     0.008 C 
ATOM   1495  O   ILE   202      10.056 -30.690  -0.411  1.00  0.00     0.158 OA
ATOM   1496  C   ILE   202       9.215 -31.322   0.239  1.00  0.00    -0.286 C 
ATOM   1497  C   ILE   202       8.421 -30.611   1.359  1.00  0.00    -0.102 C 
ATOM   1498  N   ILE   202       6.978 -30.903   1.281  1.00  0.00     0.222 N 
ATOM   1499  C   VAL   203       9.078 -34.901  -1.048  1.00  0.00     0.008 C 
ATOM   1500  O   VAL   203      10.042 -32.622  -3.299  1.00  0.00     0.158 OA
ATOM   1501  N   VAL   203       8.923 -32.621   0.002  1.00  0.00     0.222 N 
ATOM   1502  C   VAL   203       9.191 -32.707  -2.416  1.00  0.00    -0.286 C 
ATOM   1503  C   VAL   203       9.529 -33.408  -1.084  1.00  0.00    -0.102 C 
ATOM   1504  C   VAL   203       9.644 -35.612   0.177  1.00  0.00    -0.000 C 
ATOM   1505  C   VAL   203       9.462 -35.649  -2.330  1.00  0.00    -0.000 C 
ATOM   1506  O   GLY   204       7.856 -29.348  -4.808  1.00  0.00     0.158 OA
ATOM   1507  C   GLY   204       8.140 -30.037  -3.830  1.00  0.00    -0.287 C 
ATOM   1508  C   GLY   204       7.495 -31.402  -3.650  1.00  0.00    -0.094 C 
ATOM   1509  N   GLY   204       7.984 -32.152  -2.497  1.00  0.00     0.222 N 
ATOM   1510  O   GLY   205       9.666 -26.080  -2.488  1.00  0.00     0.158 OA
ATOM   1511  C   GLY   205       9.174 -27.189  -2.274  1.00  0.00    -0.287 C 
ATOM   1512  C   GLY   205       9.754 -28.393  -2.985  1.00  0.00    -0.094 C 
ATOM   1513  N   GLY   205       9.011 -29.646  -2.904  1.00  0.00     0.222 N 
ATOM   1514  C   ALA   206       8.462 -25.475   0.236  1.00  0.00    -0.286 C 
ATOM   1515  C   ALA   206       7.513 -26.306  -0.629  1.00  0.00    -0.102 C 
ATOM   1516  O   ALA   206       8.189 -24.298   0.473  1.00  0.00     0.158 OA
ATOM   1517  C   ALA   206       6.381 -26.858   0.220  1.00  0.00     0.007 C 
ATOM   1518  N   ALA   206       8.172 -27.387  -1.388  1.00  0.00     0.222 N 
ATOM   1519  C   LEU   207      11.899 -25.228   0.752  1.00  0.00    -0.286 C 
ATOM   1520  C   LEU   207      10.583 -25.418   1.522  1.00  0.00    -0.102 C 
ATOM   1521  N   LEU   207       9.566 -26.082   0.703  1.00  0.00     0.222 N 
ATOM   1522  C   LEU   207       9.400 -24.777   4.321  1.00  0.00     0.000 C 
ATOM   1523  C   LEU   207      10.160 -26.997   5.120  1.00  0.00     0.000 C 
ATOM   1524  C   LEU   207       9.729 -26.194   3.891  1.00  0.00    -0.000 C 
ATOM   1525  O   LEU   207      12.958 -25.049   1.364  1.00  0.00     0.158 OA
ATOM   1526  C   LEU   207      10.826 -26.217   2.823  1.00  0.00     0.008 C 
ATOM   1527  C   GLY   208      13.423 -26.416  -2.080  1.00  0.00    -0.287 C 
ATOM   1528  N   GLY   208      11.821 -25.270  -0.577  1.00  0.00     0.222 N 
ATOM   1529  O   GLY   208      13.254 -27.496  -1.500  1.00  0.00     0.158 OA
ATOM   1530  C   GLY   208      12.984 -25.117  -1.441  1.00  0.00    -0.094 C 
ATOM   1531  O   GLU   209      13.202 -29.346  -6.253  1.00  0.00     0.162 OA
ATOM   1532  O   GLU   209      15.060 -30.494  -6.538  1.00  0.00     0.162 OA
ATOM   1533  O   GLU   209      15.391 -29.525  -3.363  1.00  0.00     0.158 OA
ATOM   1534  N   GLU   209      13.995 -26.310  -3.289  1.00  0.00     0.222 N 
ATOM   1535  C   GLU   209      14.443 -27.448  -4.086  1.00  0.00    -0.102 C 
ATOM   1536  C   GLU   209      14.845 -27.005  -5.512  1.00  0.00     0.007 C 
ATOM   1537  C   GLU   209      15.247 -28.124  -6.469  1.00  0.00     0.024 C 
ATOM   1538  C   GLU   209      14.439 -29.412  -6.437  1.00  0.00    -0.347 C 
ATOM   1539  C   GLU   209      15.519 -28.296  -3.408  1.00  0.00    -0.286 C 
ATOM   1540  C   GLU   210      17.681 -28.304  -2.208  1.00  0.00    -0.102 C 
ATOM   1541  N   GLU   210      16.564 -27.645  -2.889  1.00  0.00     0.222 N 
ATOM   1542  C   GLU   210      18.784 -27.285  -1.845  1.00  0.00     0.007 C 
ATOM   1543  O   GLU   210      17.665 -25.114  -3.468  1.00  0.00     0.162 OA
ATOM   1544  O   GLU   210      19.293 -25.225  -4.948  1.00  0.00     0.162 OA
ATOM   1545  C   GLU   210      18.755 -25.585  -3.874  1.00  0.00    -0.347 C 
ATOM   1546  C   GLU   210      17.196 -29.083  -0.970  1.00  0.00    -0.286 C 
ATOM   1547  O   GLU   210      17.614 -30.224  -0.770  1.00  0.00     0.158 OA
ATOM   1548  C   GLU   210      19.482 -26.637  -3.041  1.00  0.00     0.024 C 
ATOM   1549  C   ALA   211      14.870 -30.375   0.574  1.00  0.00    -0.286 C 
ATOM   1550  C   ALA   211      14.783 -28.172   1.732  1.00  0.00     0.007 C 
ATOM   1551  O   ALA   211      14.985 -31.425   1.199  1.00  0.00     0.158 OA
ATOM   1552  N   ALA   211      16.268 -28.499  -0.190  1.00  0.00     0.222 N 
ATOM   1553  C   ALA   211      15.679 -29.146   0.995  1.00  0.00    -0.102 C 
ATOM   1554  O   GLY   212      13.886 -33.627  -1.181  1.00  0.00     0.158 OA
ATOM   1555  C   GLY   212      14.183 -32.476  -1.514  1.00  0.00    -0.287 C 
ATOM   1556  C   GLY   212      13.315 -31.316  -1.088  1.00  0.00    -0.094 C 
ATOM   1557  N   GLY   212      14.111 -30.239  -0.515  1.00  0.00     0.222 N 
ATOM   1558  C   ALA   213      17.349 -32.460  -3.526  1.00  0.00     0.007 C 
ATOM   1559  O   ALA   213      17.105 -35.100  -1.551  1.00  0.00     0.158 OA
ATOM   1560  C   ALA   213      16.926 -33.882  -1.501  1.00  0.00    -0.286 C 
ATOM   1561  C   ALA   213      16.273 -33.147  -2.683  1.00  0.00    -0.102 C 
ATOM   1562  N   ALA   213      15.284 -32.166  -2.217  1.00  0.00     0.222 N 
ATOM   1563  N   GLN   214      21.069 -29.931   1.651  1.00  0.00     0.108 N 
ATOM   1564  O   GLN   214      18.906 -29.768   2.164  1.00  0.00     0.158 OA
ATOM   1565  C   GLN   214      19.844 -30.424   1.685  1.00  0.00    -0.286 C 
ATOM   1566  C   GLN   214      19.661 -31.823   1.119  1.00  0.00     0.020 C 
ATOM   1567  C   GLN   214      18.418 -32.545   1.658  1.00  0.00     0.007 C 
ATOM   1568  O   GLN   214      17.417 -35.702   1.909  1.00  0.00     0.158 OA
ATOM   1569  C   GLN   214      17.001 -34.611   1.512  1.00  0.00    -0.286 C 
ATOM   1570  C   GLN   214      17.925 -33.677   0.748  1.00  0.00    -0.102 C 
ATOM   1571  N   GLN   214      17.265 -33.138  -0.450  1.00  0.00     0.222 N 
ATOM   1572  C   ILE   215      12.364 -35.074   3.325  1.00  0.00    -0.000 C 
ATOM   1573  C   ILE   215      12.930 -32.266   4.554  1.00  0.00     0.000 C 
ATOM   1574  C   ILE   215      13.979 -33.202   3.988  1.00  0.00    -0.000 C 
ATOM   1575  C   ILE   215      13.524 -34.163   2.850  1.00  0.00     0.008 C 
ATOM   1576  O   ILE   215      14.365 -37.338   2.261  1.00  0.00     0.158 OA
ATOM   1577  C   ILE   215      14.430 -36.279   1.640  1.00  0.00    -0.286 C 
ATOM   1578  C   ILE   215      14.752 -34.999   2.401  1.00  0.00    -0.102 C 
ATOM   1579  N   ILE   215      15.742 -34.195   1.692  1.00  0.00     0.222 N 
ATOM   1580  C   GLN   216      12.594 -37.790  -4.082  1.00  0.00    -0.286 C 
ATOM   1581  N   GLN   216      11.706 -38.656  -4.541  1.00  0.00     0.108 N 
ATOM   1582  O   GLN   216      12.856 -36.742  -4.687  1.00  0.00     0.158 OA
ATOM   1583  C   GLN   216      13.283 -38.183  -2.800  1.00  0.00     0.020 C 
ATOM   1584  C   GLN   216      13.875 -37.023  -1.992  1.00  0.00     0.007 C 
ATOM   1585  O   GLN   216      15.055 -39.587  -0.312  1.00  0.00     0.158 OA
ATOM   1586  C   GLN   216      15.269 -38.379  -0.393  1.00  0.00    -0.286 C 
ATOM   1587  C   GLN   216      14.105 -37.403  -0.515  1.00  0.00    -0.102 C 
ATOM   1588  N   GLN   216      14.357 -36.211   0.299  1.00  0.00     0.222 N 
ATOM   1589  C   LEU   217      20.172 -38.493  -1.017  1.00  0.00    -0.000 C 
ATOM   1590  C   LEU   217      21.320 -37.495  -1.169  1.00  0.00     0.000 C 
ATOM   1591  C   LEU   217      19.914 -39.163  -2.366  1.00  0.00     0.000 C 
ATOM   1592  C   LEU   217      18.928 -37.782  -0.503  1.00  0.00     0.008 C 
ATOM   1593  O   LEU   217      18.082 -40.448   1.319  1.00  0.00     0.158 OA
ATOM   1594  C   LEU   217      17.707 -38.648  -0.218  1.00  0.00    -0.102 C 
ATOM   1595  C   LEU   217      17.778 -39.261   1.180  1.00  0.00    -0.286 C 
ATOM   1596  N   LEU   217      16.499 -37.846  -0.362  1.00  0.00     0.222 N 
ATOM   1597  N   LEU   218      17.457 -38.466   2.207  1.00  0.00     0.222 N 
ATOM   1598  C   LEU   218      15.813 -38.379   6.680  1.00  0.00     0.000 C 
ATOM   1599  C   LEU   218      17.872 -36.992   6.721  1.00  0.00     0.000 C 
ATOM   1600  C   LEU   218      17.146 -38.125   6.026  1.00  0.00    -0.000 C 
ATOM   1601  C   LEU   218      16.969 -37.832   4.526  1.00  0.00     0.008 C 
ATOM   1602  C   LEU   218      16.473 -40.176   3.688  1.00  0.00    -0.286 C 
ATOM   1603  O   LEU   218      16.906 -41.209   4.201  1.00  0.00     0.158 OA
ATOM   1604  C   LEU   218      17.405 -38.956   3.582  1.00  0.00    -0.102 C 
ATOM   1605  O   GLU   219      10.054 -38.554   2.950  1.00  0.00     0.162 OA
ATOM   1606  O   GLU   219      11.014 -39.136   1.051  1.00  0.00     0.162 OA
ATOM   1607  C   GLU   219      10.992 -39.079   2.306  1.00  0.00    -0.347 C 
ATOM   1608  O   GLU   219      14.557 -43.564   2.893  1.00  0.00     0.158 OA
ATOM   1609  C   GLU   219      12.156 -39.651   3.106  1.00  0.00     0.024 C 
ATOM   1610  C   GLU   219      12.937 -40.772   2.439  1.00  0.00     0.007 C 
ATOM   1611  C   GLU   219      14.786 -42.451   2.422  1.00  0.00    -0.286 C 
ATOM   1612  C   GLU   219      14.254 -41.194   3.129  1.00  0.00    -0.102 C 
ATOM   1613  N   GLU   219      15.242 -40.097   3.110  1.00  0.00     0.222 N 
ATOM   1614  C   GLU   220      15.341 -42.752  -1.794  1.00  0.00     0.024 C 
ATOM   1615  O   GLU   220      14.601 -41.339  -3.548  1.00  0.00     0.162 OA
ATOM   1616  O   GLU   220      16.771 -41.420  -3.163  1.00  0.00     0.162 OA
ATOM   1617  C   GLU   220      15.593 -41.771  -2.920  1.00  0.00    -0.347 C 
ATOM   1618  N   GLU   220      15.452 -42.281   1.268  1.00  0.00     0.222 N 
ATOM   1619  C   GLU   220      16.504 -42.967  -0.844  1.00  0.00     0.007 C 
ATOM   1620  O   GLU   220      17.096 -45.382   1.338  1.00  0.00     0.158 OA
ATOM   1621  C   GLU   220      17.097 -44.148   1.294  1.00  0.00    -0.286 C 
ATOM   1622  C   GLU   220      16.002 -43.415   0.522  1.00  0.00    -0.102 C 
ATOM   1623  O   GLY   221      19.057 -45.749   4.307  1.00  0.00     0.158 OA
ATOM   1624  C   GLY   221      18.514 -44.711   3.932  1.00  0.00    -0.287 C 
ATOM   1625  C   GLY   221      19.066 -43.932   2.747  1.00  0.00    -0.094 C 
ATOM   1626  N   GLY   221      17.993 -43.382   1.917  1.00  0.00     0.222 N 
ATOM   1627  C   TRP   222      14.812 -42.882  10.816  1.00  0.00     0.008 C 
ATOM   1628  C   TRP   222      15.368 -41.616  10.782  1.00  0.00    -0.000 C 
ATOM   1629  C   TRP   222      15.918 -41.088   9.610  1.00  0.00     0.000 C 
ATOM   1630  C   TRP   222      15.887 -41.801   8.421  1.00  0.00    -0.000 C 
ATOM   1631  C   TRP   222      15.060 -44.052   7.398  1.00  0.00     0.008 C 
ATOM   1632  C   TRP   222      14.802 -43.610   9.624  1.00  0.00    -0.122 C 
ATOM   1633  N   TRP   222      14.272 -44.843   9.340  1.00  0.00     0.212 N 
ATOM   1634  C   TRP   222      15.306 -43.083   8.417  1.00  0.00     0.008 C 
ATOM   1635  C   TRP   222      14.452 -45.109   8.008  1.00  0.00    -0.114 C 
ATOM   1636  C   TRP   222      15.472 -43.953   5.968  1.00  0.00     0.007 C 
ATOM   1637  C   TRP   222      16.220 -46.245   5.335  1.00  0.00    -0.286 C 
ATOM   1638  O   TRP   222      16.529 -47.160   6.094  1.00  0.00     0.158 OA
ATOM   1639  C   TRP   222      16.690 -44.812   5.636  1.00  0.00    -0.102 C 
ATOM   1640  N   TRP   222      17.393 -44.229   4.492  1.00  0.00     0.222 N 
ATOM   1641  O   ASP   223      13.183 -49.802   2.714  1.00  0.00     0.162 OA
ATOM   1642  O   ASP   223      13.895 -49.163   0.757  1.00  0.00     0.162 OA
ATOM   1643  C   ASP   223      13.694 -48.958   1.958  1.00  0.00    -0.347 C 
ATOM   1644  C   ASP   223      14.137 -47.628   2.546  1.00  0.00     0.032 C 
ATOM   1645  O   ASP   223      16.127 -49.865   3.894  1.00  0.00     0.158 OA
ATOM   1646  C   ASP   223      16.195 -48.686   3.536  1.00  0.00    -0.286 C 
ATOM   1647  C   ASP   223      15.013 -47.748   3.799  1.00  0.00    -0.103 C 
ATOM   1648  N   ASP   223      15.490 -46.433   4.218  1.00  0.00     0.222 N 
ATOM   1649  O   GLN   224      20.501 -45.866   0.150  1.00  0.00     0.158 OA
ATOM   1650  N   GLN   224      19.617 -46.652  -1.744  1.00  0.00     0.108 N 
ATOM   1651  C   GLN   224      19.798 -46.706  -0.432  1.00  0.00    -0.286 C 
ATOM   1652  C   GLN   224      19.486 -48.045   1.758  1.00  0.00     0.007 C 
ATOM   1653  C   GLN   224      19.063 -47.824   0.301  1.00  0.00     0.020 C 
ATOM   1654  C   GLN   224      19.142 -49.435   3.832  1.00  0.00    -0.286 C 
ATOM   1655  O   GLN   224      19.458 -50.612   3.880  1.00  0.00     0.158 OA
ATOM   1656  C   GLN   224      18.481 -48.907   2.565  1.00  0.00    -0.102 C 
ATOM   1657  N   GLN   224      17.261 -48.159   2.887  1.00  0.00     0.222 N 
ATOM   1658  N   ARG   225      19.129 -43.229   8.251  1.00  0.00     0.111 N 
ATOM   1659  N   ARG   225      20.477 -43.746   6.478  1.00  0.00     0.111 N 
ATOM   1660  C   ARG   225      20.069 -43.994   7.715  1.00  0.00    -0.341 C 
ATOM   1661  N   ARG   225      20.553 -45.036   8.388  1.00  0.00     0.225 N 
ATOM   1662  C   ARG   225      21.632 -45.919   7.905  1.00  0.00    -0.114 C 
ATOM   1663  C   ARG   225      21.297 -46.821   6.725  1.00  0.00     0.008 C 
ATOM   1664  C   ARG   225      20.105 -47.645   7.011  1.00  0.00     0.007 C 
ATOM   1665  O   ARG   225      19.691 -50.652   7.763  1.00  0.00     0.158 OA
ATOM   1666  C   ARG   225      19.121 -49.862   7.006  1.00  0.00    -0.286 C 
ATOM   1667  C   ARG   225      19.956 -48.914   6.146  1.00  0.00    -0.102 C 
ATOM   1668  N   ARG   225      19.328 -48.582   4.849  1.00  0.00     0.222 N 
ATOM   1669  C   ALA   226      15.455 -49.870   7.646  1.00  0.00     0.007 C 
ATOM   1670  O   ALA   226      16.528 -52.298   6.545  1.00  0.00     0.159 OA
ATOM   1671  C   ALA   226      16.945 -51.893   7.611  1.00  0.00    -0.296 C 
ATOM   1672  C   ALA   226      16.871 -50.378   7.885  1.00  0.00    -0.101 C 
ATOM   1673  N   ALA   226      17.801 -49.640   7.036  1.00  0.00     0.222 N 
ATOM   1674  C   PRO   227      18.033 -52.467   9.866  1.00  0.00    -0.124 C 
ATOM   1675  C   PRO   227      18.829 -53.702  10.173  1.00  0.00     0.008 C 
ATOM   1676  C   PRO   227      18.029 -54.818   9.531  1.00  0.00     0.008 C 
ATOM   1677  O   PRO   227      16.161 -55.857   7.108  1.00  0.00     0.158 OA
ATOM   1678  C   PRO   227      16.178 -54.845   7.800  1.00  0.00    -0.286 C 
ATOM   1679  C   PRO   227      17.506 -54.209   8.225  1.00  0.00    -0.112 C 
ATOM   1680  N   PRO   227      17.441 -52.758   8.536  1.00  0.00     0.356 N 
ATOM   1681  C   ILE   228      11.671 -54.055  11.073  1.00  0.00     0.000 C 
ATOM   1682  C   ILE   228      13.410 -56.410   9.731  1.00  0.00    -0.000 C 
ATOM   1683  C   ILE   228      12.772 -53.938  10.038  1.00  0.00    -0.000 C 
ATOM   1684  C   ILE   228      12.879 -55.131   9.060  1.00  0.00     0.008 C 
ATOM   1685  O   ILE   228      11.831 -53.926   6.628  1.00  0.00     0.158 OA
ATOM   1686  C   ILE   228      13.031 -53.796   6.868  1.00  0.00    -0.286 C 
ATOM   1687  C   ILE   228      13.738 -54.762   7.822  1.00  0.00    -0.102 C 
ATOM   1688  N   ILE   228      15.062 -54.250   8.204  1.00  0.00     0.222 N 
ATOM   1689  O   GLY   229      12.067 -50.867   7.282  1.00  0.00     0.158 OA
ATOM   1690  C   GLY   229      12.383 -50.781   6.091  1.00  0.00    -0.287 C 
ATOM   1691  C   GLY   229      13.241 -51.835   5.423  1.00  0.00    -0.094 C 
ATOM   1692  N   GLY   229      13.777 -52.817   6.363  1.00  0.00     0.222 N 
ATOM   1693  C   TRP   230       8.753 -45.907  10.219  1.00  0.00    -0.000 C 
ATOM   1694  C   TRP   230       9.447 -47.123  10.148  1.00  0.00     0.000 C 
ATOM   1695  C   TRP   230       8.861 -44.956   9.224  1.00  0.00     0.008 C 
ATOM   1696  C   TRP   230      10.295 -47.401   9.088  1.00  0.00    -0.000 C 
ATOM   1697  C   TRP   230       9.724 -45.231   8.158  1.00  0.00    -0.122 C 
ATOM   1698  N   TRP   230      10.010 -44.500   7.029  1.00  0.00     0.212 N 
ATOM   1699  C   TRP   230      10.455 -46.436   8.072  1.00  0.00     0.008 C 
ATOM   1700  C   TRP   230      10.904 -45.200   6.255  1.00  0.00    -0.114 C 
ATOM   1701  C   TRP   230      11.229 -46.378   6.861  1.00  0.00     0.008 C 
ATOM   1702  C   TRP   230      12.071 -47.481   6.289  1.00  0.00     0.007 C 
ATOM   1703  O   TRP   230      10.703 -47.871   3.607  1.00  0.00     0.158 OA
ATOM   1704  C   TRP   230      10.264 -48.212   4.704  1.00  0.00    -0.286 C 
ATOM   1705  C   TRP   230      11.201 -48.665   5.806  1.00  0.00    -0.102 C 
ATOM   1706  N   TRP   230      12.017 -49.766   5.319  1.00  0.00     0.222 N 
ATOM   1707  N   ASN   231       4.850 -49.422   2.757  1.00  0.00     0.108 N 
ATOM   1708  O   ASN   231       5.793 -47.444   2.314  1.00  0.00     0.158 OA
ATOM   1709  C   ASN   231       5.795 -48.513   2.933  1.00  0.00    -0.286 C 
ATOM   1710  C   ASN   231       6.874 -48.852   3.930  1.00  0.00     0.028 C 
ATOM   1711  O   ASN   231       6.481 -46.468   5.433  1.00  0.00     0.158 OA
ATOM   1712  C   ASN   231       7.378 -46.465   4.582  1.00  0.00    -0.286 C 
ATOM   1713  C   ASN   231       7.963 -47.773   4.066  1.00  0.00    -0.102 C 
ATOM   1714  N   ASN   231       8.978 -48.199   5.009  1.00  0.00     0.222 N 
ATOM   1715  C   MET   232       9.047 -42.440  -0.374  1.00  0.00    -0.068 C 
ATOM   1716  S   MET   232       9.147 -41.856   1.296  1.00  0.00     0.137 S 
ATOM   1717  C   MET   232       8.126 -43.067   2.104  1.00  0.00    -0.074 C 
ATOM   1718  C   MET   232       8.285 -42.958   3.611  1.00  0.00     0.013 C 
ATOM   1719  O   MET   232       5.375 -42.834   4.750  1.00  0.00     0.158 OA
ATOM   1720  C   MET   232       5.935 -43.741   4.139  1.00  0.00    -0.286 C 
ATOM   1721  C   MET   232       7.439 -43.989   4.367  1.00  0.00    -0.102 C 
ATOM   1722  N   MET   232       7.877 -45.349   4.038  1.00  0.00     0.222 N 
ATOM   1723  N   LYS   233       3.737 -46.865  -1.244  1.00  0.00     0.097 N 
ATOM   1724  C   LYS   233       4.488 -45.612  -1.541  1.00  0.00    -0.105 C 
ATOM   1725  C   LYS   233       3.855 -44.395  -0.896  1.00  0.00     0.008 C 
ATOM   1726  C   LYS   233       4.345 -44.127   0.529  1.00  0.00    -0.001 C 
ATOM   1727  C   LYS   233       3.543 -44.893   1.572  1.00  0.00     0.008 C 
ATOM   1728  O   LYS   233       1.755 -45.189   3.927  1.00  0.00     0.158 OA
ATOM   1729  C   LYS   233       2.985 -45.232   4.008  1.00  0.00    -0.286 C 
ATOM   1730  C   LYS   233       3.845 -44.445   3.016  1.00  0.00    -0.102 C 
ATOM   1731  N   LYS   233       5.284 -44.568   3.305  1.00  0.00     0.222 N 
ATOM   1732  O   ASP   234       2.767 -50.420   6.560  1.00  0.00     0.162 OA
ATOM   1733  O   ASP   234       1.284 -48.859   6.957  1.00  0.00     0.162 OA
ATOM   1734  C   ASP   234       2.355 -49.249   6.460  1.00  0.00    -0.347 C 
ATOM   1735  C   ASP   234       3.185 -48.262   5.661  1.00  0.00     0.032 C 
ATOM   1736  O   ASP   234       4.150 -46.631   7.904  1.00  0.00     0.158 OA
ATOM   1737  C   ASP   234       3.093 -46.340   7.342  1.00  0.00    -0.286 C 
ATOM   1738  C   ASP   234       2.861 -46.770   5.891  1.00  0.00    -0.103 C 
ATOM   1739  N   ASP   234       3.617 -45.949   4.950  1.00  0.00     0.222 N 
ATOM   1740  C   ALA   235       1.509 -43.887   9.568  1.00  0.00     0.007 C 
ATOM   1741  O   ALA   235       1.989 -46.051  11.535  1.00  0.00     0.158 OA
ATOM   1742  C   ALA   235       1.811 -46.262  10.340  1.00  0.00    -0.286 C 
ATOM   1743  C   ALA   235       2.255 -45.199   9.337  1.00  0.00    -0.102 C 
ATOM   1744  N   ALA   235       2.114 -45.641   7.945  1.00  0.00     0.222 N 
ATOM   1745  C   THR   236      -0.659 -50.643  10.859  1.00  0.00     0.012 C 
ATOM   1746  O   THR   236      -1.229 -48.843   9.360  1.00  0.00     0.152 OA
ATOM   1747  C   THR   236      -0.122 -49.519   9.965  1.00  0.00    -0.169 C 
ATOM   1748  O   THR   236       1.522 -49.120  12.888  1.00  0.00     0.159 OA
ATOM   1749  C   THR   236       1.813 -49.044  11.697  1.00  0.00    -0.296 C 
ATOM   1750  C   THR   236       0.729 -48.482  10.743  1.00  0.00    -0.089 C 
ATOM   1751  N   THR   236       1.225 -47.397   9.866  1.00  0.00     0.222 N 
ATOM   1752  C   PRO   237       3.596 -49.360   9.863  1.00  0.00    -0.124 C 
ATOM   1753  C   PRO   237       4.734 -50.322   9.919  1.00  0.00     0.008 C 
ATOM   1754  C   PRO   237       5.311 -50.120  11.311  1.00  0.00     0.008 C 
ATOM   1755  O   PRO   237       4.693 -49.297  14.462  1.00  0.00     0.158 OA
ATOM   1756  C   PRO   237       4.400 -48.885  13.336  1.00  0.00    -0.286 C 
ATOM   1757  C   PRO   237       4.081 -49.872  12.202  1.00  0.00    -0.112 C 
ATOM   1758  N   PRO   237       3.065 -49.365  11.247  1.00  0.00     0.356 N 
ATOM   1759  C   VAL   238       5.987 -45.145  12.462  1.00  0.00    -0.000 C 
ATOM   1760  C   VAL   238       4.786 -44.011  14.361  1.00  0.00    -0.000 C 
ATOM   1761  C   VAL   238       4.722 -45.133  13.320  1.00  0.00     0.008 C 
ATOM   1762  O   VAL   238       3.525 -46.411  16.181  1.00  0.00     0.158 OA
ATOM   1763  C   VAL   238       3.320 -46.478  14.976  1.00  0.00    -0.286 C 
ATOM   1764  C   VAL   238       4.506 -46.504  14.009  1.00  0.00    -0.102 C 
ATOM   1765  N   VAL   238       4.298 -47.581  13.040  1.00  0.00     0.222 N 
ATOM   1766  C   ALA   239      -0.348 -46.610  14.289  1.00  0.00     0.007 C 
ATOM   1767  O   ALA   239       0.460 -47.506  17.352  1.00  0.00     0.158 OA
ATOM   1768  C   ALA   239       0.819 -47.704  16.191  1.00  0.00    -0.286 C 
ATOM   1769  C   ALA   239       0.844 -46.534  15.218  1.00  0.00    -0.102 C 
ATOM   1770  N   ALA   239       2.091 -46.524  14.437  1.00  0.00     0.222 N 
ATOM   1771  N   LYS   240       0.585 -55.455  13.766  1.00  0.00     0.097 N 
ATOM   1772  C   LYS   240       0.402 -54.257  14.620  1.00  0.00    -0.105 C 
ATOM   1773  C   LYS   240       0.964 -53.021  13.967  1.00  0.00     0.008 C 
ATOM   1774  C   LYS   240       0.592 -51.765  14.731  1.00  0.00    -0.001 C 
ATOM   1775  C   LYS   240       1.690 -51.352  15.709  1.00  0.00     0.008 C 
ATOM   1776  O   LYS   240       2.041 -50.443  18.827  1.00  0.00     0.158 OA
ATOM   1777  C   LYS   240       2.303 -49.969  17.729  1.00  0.00    -0.286 C 
ATOM   1778  C   LYS   240       1.309 -50.130  16.565  1.00  0.00    -0.102 C 
ATOM   1779  N   LYS   240       1.251 -48.907  15.733  1.00  0.00     0.222 N 
ATOM   1780  C   THR   241       6.912 -48.413  18.831  1.00  0.00     0.012 C 
ATOM   1781  O   THR   241       6.136 -49.432  16.777  1.00  0.00     0.152 OA
ATOM   1782  C   THR   241       5.753 -48.548  17.833  1.00  0.00    -0.169 C 
ATOM   1783  O   THR   241       4.187 -48.410  20.749  1.00  0.00     0.158 OA
ATOM   1784  C   THR   241       3.952 -48.152  19.567  1.00  0.00    -0.287 C 
ATOM   1785  C   THR   241       4.484 -49.078  18.482  1.00  0.00    -0.089 C 
ATOM   1786  N   THR   241       3.449 -49.318  17.472  1.00  0.00     0.222 N 
ATOM   1787  C   VAL   242       2.899 -44.123  18.671  1.00  0.00    -0.000 C 
ATOM   1788  C   VAL   242       1.172 -44.100  20.519  1.00  0.00    -0.000 C 
ATOM   1789  C   VAL   242       1.897 -44.962  19.471  1.00  0.00     0.008 C 
ATOM   1790  O   VAL   242       1.669 -46.791  22.255  1.00  0.00     0.158 OA
ATOM   1791  C   VAL   242       1.645 -46.959  21.037  1.00  0.00    -0.286 C 
ATOM   1792  C   VAL   242       2.602 -46.169  20.145  1.00  0.00    -0.102 C 
ATOM   1793  N   VAL   242       3.202 -47.095  19.178  1.00  0.00     0.222 N 
ATOM   1794  S   CYS   243      -2.215 -48.323  19.396  1.00  0.00     0.063 S 
ATOM   1795  C   CYS   243      -1.036 -49.424  20.211  1.00  0.00    -0.061 C 
ATOM   1796  O   CYS   243       0.125 -49.923  23.202  1.00  0.00     0.158 OA
ATOM   1797  C   CYS   243       0.624 -49.671  22.099  1.00  0.00    -0.286 C 
ATOM   1798  C   CYS   243      -0.097 -48.703  21.168  1.00  0.00    -0.096 C 
ATOM   1799  N   CYS   243       0.838 -47.852  20.430  1.00  0.00     0.222 N 
ATOM   1800  C   ALA   244       3.889 -51.520  21.854  1.00  0.00     0.007 C 
ATOM   1801  O   ALA   244       2.776 -50.891  24.950  1.00  0.00     0.158 OA
ATOM   1802  C   ALA   244       2.961 -50.330  23.867  1.00  0.00    -0.286 C 
ATOM   1803  C   ALA   244       2.615 -51.068  22.563  1.00  0.00    -0.102 C 
ATOM   1804  N   ALA   244       1.813 -50.188  21.688  1.00  0.00     0.222 N 
ATOM   1805  C   LEU   245       6.687 -47.318  25.605  1.00  0.00     0.000 C 
ATOM   1806  C   LEU   245       6.531 -45.932  23.535  1.00  0.00     0.000 C 
ATOM   1807  C   LEU   245       5.955 -47.123  24.269  1.00  0.00    -0.000 C 
ATOM   1808  C   LEU   245       4.460 -46.938  24.486  1.00  0.00     0.008 C 
ATOM   1809  O   LEU   245       2.604 -47.581  26.950  1.00  0.00     0.158 OA
ATOM   1810  C   LEU   245       2.479 -47.793  25.737  1.00  0.00    -0.286 C 
ATOM   1811  C   LEU   245       3.700 -48.191  24.922  1.00  0.00    -0.102 C 
ATOM   1812  N   LEU   245       3.379 -49.045  23.763  1.00  0.00     0.222 N 
ATOM   1813  C   LEU   246      -0.876 -44.349  25.086  1.00  0.00     0.000 C 
ATOM   1814  C   LEU   246      -1.811 -45.352  22.973  1.00  0.00     0.000 C 
ATOM   1815  C   LEU   246      -0.813 -45.537  24.103  1.00  0.00    -0.000 C 
ATOM   1816  C   LEU   246      -1.048 -46.878  24.802  1.00  0.00     0.008 C 
ATOM   1817  O   LEU   246      -1.346 -48.448  27.400  1.00  0.00     0.158 OA
ATOM   1818  C   LEU   246      -0.492 -48.592  26.526  1.00  0.00    -0.286 C 
ATOM   1819  C   LEU   246       0.042 -47.372  25.781  1.00  0.00    -0.102 C 
ATOM   1820  N   LEU   246       1.299 -47.685  25.082  1.00  0.00     0.222 N 
ATOM   1821  O   SER   247       1.111 -52.632  25.763  1.00  0.00     0.152 OA
ATOM   1822  C   SER   247      -0.248 -52.219  25.766  1.00  0.00    -0.156 C 
ATOM   1823  O   SER   247       1.073 -50.510  28.471  1.00  0.00     0.158 OA
ATOM   1824  C   SER   247       0.244 -51.320  28.051  1.00  0.00    -0.287 C 
ATOM   1825  C   SER   247      -0.487 -51.062  26.736  1.00  0.00    -0.089 C 
ATOM   1826  N   SER   247      -0.044 -49.800  26.135  1.00  0.00     0.222 N 
ATOM   1827  O   ASP   248      -2.829 -53.809  30.711  1.00  0.00     0.162 OA
ATOM   1828  O   ASP   248      -1.897 -51.915  31.308  1.00  0.00     0.162 OA
ATOM   1829  C   ASP   248      -1.827 -53.098  30.921  1.00  0.00    -0.347 C 
ATOM   1830  C   ASP   248      -0.455 -53.724  30.754  1.00  0.00     0.032 C 
ATOM   1831  O   ASP   248       2.350 -54.372  30.578  1.00  0.00     0.158 OA
ATOM   1832  C   ASP   248       1.805 -53.772  29.654  1.00  0.00    -0.286 C 
ATOM   1833  C   ASP   248       0.568 -52.902  29.939  1.00  0.00    -0.103 C 
ATOM   1834  N   ASP   248      -0.057 -52.467  28.686  1.00  0.00     0.222 N 
ATOM   1835  C   TRP   249       1.150 -59.892  28.829  1.00  0.00    -0.000 C 
ATOM   1836  C   TRP   249       2.494 -59.508  28.695  1.00  0.00     0.000 C 
ATOM   1837  C   TRP   249       0.126 -59.123  28.327  1.00  0.00     0.008 C 
ATOM   1838  C   TRP   249       2.840 -58.332  28.052  1.00  0.00    -0.000 C 
ATOM   1839  C   TRP   249       0.473 -57.916  27.712  1.00  0.00    -0.122 C 
ATOM   1840  N   TRP   249      -0.313 -56.970  27.106  1.00  0.00     0.212 N 
ATOM   1841  C   TRP   249       1.817 -57.503  27.562  1.00  0.00     0.008 C 
ATOM   1842  C   TRP   249       0.492 -55.971  26.608  1.00  0.00    -0.114 C 
ATOM   1843  C   TRP   249       1.805 -56.271  26.834  1.00  0.00     0.008 C 
ATOM   1844  C   TRP   249       2.982 -55.372  26.605  1.00  0.00     0.007 C 
ATOM   1845  O   TRP   249       5.705 -54.918  27.779  1.00  0.00     0.158 OA
ATOM   1846  C   TRP   249       4.761 -54.152  27.964  1.00  0.00    -0.286 C 
ATOM   1847  C   TRP   249       3.346 -54.682  27.920  1.00  0.00    -0.102 C 
ATOM   1848  N   TRP   249       2.253 -53.827  28.385  1.00  0.00     0.222 N 
ATOM   1849  C   LEU   250       8.060 -52.629  25.840  1.00  0.00     0.000 C 
ATOM   1850  C   LEU   250       6.449 -51.005  24.822  1.00  0.00     0.000 C 
ATOM   1851  C   LEU   250       6.697 -51.974  25.973  1.00  0.00    -0.000 C 
ATOM   1852  C   LEU   250       6.548 -51.279  27.349  1.00  0.00     0.008 C 
ATOM   1853  O   LEU   250       6.166 -50.299  29.929  1.00  0.00     0.159 OA
ATOM   1854  C   LEU   250       6.102 -51.534  29.868  1.00  0.00    -0.296 C 
ATOM   1855  C   LEU   250       6.230 -52.244  28.510  1.00  0.00    -0.101 C 
ATOM   1856  N   LEU   250       4.922 -52.868  28.280  1.00  0.00     0.222 N 
ATOM   1857  C   PRO   251       5.751 -53.765  31.117  1.00  0.00    -0.124 C 
ATOM   1858  C   PRO   251       5.596 -53.976  32.597  1.00  0.00     0.008 C 
ATOM   1859  C   PRO   251       4.909 -52.769  33.077  1.00  0.00     0.008 C 
ATOM   1860  O   PRO   251       6.493 -50.321  33.979  1.00  0.00     0.158 OA
ATOM   1861  C   PRO   251       6.716 -51.038  33.003  1.00  0.00    -0.286 C 
ATOM   1862  C   PRO   251       5.540 -51.633  32.256  1.00  0.00    -0.112 C 
ATOM   1863  N   PRO   251       5.846 -52.292  30.977  1.00  0.00     0.356 N 
ATOM   1864  C   ALA   252      10.025 -52.137  33.624  1.00  0.00     0.007 C 
ATOM   1865  O   ALA   252      11.161 -49.740  32.666  1.00  0.00     0.158 OA
ATOM   1866  C   ALA   252       9.976 -49.947  32.403  1.00  0.00    -0.286 C 
ATOM   1867  C   ALA   252       9.171 -50.926  33.261  1.00  0.00    -0.102 C 
ATOM   1868  N   ALA   252       7.952 -51.373  32.588  1.00  0.00     0.222 N 
ATOM   1869  C   THR   253      10.651 -47.969  28.027  1.00  0.00     0.012 C 
ATOM   1870  O   THR   253      10.342 -50.204  28.911  1.00  0.00     0.152 OA
ATOM   1871  C   THR   253       9.872 -48.863  29.016  1.00  0.00    -0.169 C 
ATOM   1872  O   THR   253       8.219 -46.807  30.535  1.00  0.00     0.158 OA
ATOM   1873  C   THR   253       9.433 -46.998  30.663  1.00  0.00    -0.287 C 
ATOM   1874  C   THR   253      10.011 -48.389  30.477  1.00  0.00    -0.089 C 
ATOM   1875  N   THR   253       9.334 -49.320  31.397  1.00  0.00     0.222 N 
ATOM   1876  C   THR   254      10.014 -44.525  33.804  1.00  0.00     0.012 C 
ATOM   1877  O   THR   254       8.423 -43.215  32.449  1.00  0.00     0.152 OA
ATOM   1878  C   THR   254       9.104 -44.465  32.541  1.00  0.00    -0.169 C 
ATOM   1879  O   THR   254      12.182 -44.127  31.237  1.00  0.00     0.158 OA
ATOM   1880  C   THR   254      11.045 -43.704  31.056  1.00  0.00    -0.287 C 
ATOM   1881  C   THR   254       9.878 -44.645  31.222  1.00  0.00    -0.089 C 
ATOM   1882  N   THR   254      10.297 -46.033  30.993  1.00  0.00     0.222 N 
ATOM   1883  O   GLY   255      13.615 -41.271  28.832  1.00  0.00     0.158 OA
ATOM   1884  C   GLY   255      12.561 -41.838  29.098  1.00  0.00    -0.287 C 
ATOM   1885  C   GLY   255      11.752 -41.448  30.316  1.00  0.00    -0.094 C 
ATOM   1886  N   GLY   255      10.754 -42.473  30.632  1.00  0.00     0.222 N 
ATOM   1887  O   ASP   256      14.311 -46.629  28.073  1.00  0.00     0.162 OA
ATOM   1888  O   ASP   256      14.847 -45.170  26.545  1.00  0.00     0.162 OA
ATOM   1889  C   ASP   256      14.058 -45.637  27.378  1.00  0.00    -0.347 C 
ATOM   1890  C   ASP   256      12.707 -44.987  27.527  1.00  0.00     0.032 C 
ATOM   1891  O   ASP   256      11.305 -42.447  25.641  1.00  0.00     0.158 OA
ATOM   1892  C   ASP   256      12.263 -43.177  25.855  1.00  0.00    -0.286 C 
ATOM   1893  C   ASP   256      12.742 -43.467  27.265  1.00  0.00    -0.103 C 
ATOM   1894  N   ASP   256      12.041 -42.806  28.341  1.00  0.00     0.222 N 
ATOM   1895  C   ILE   257      15.363 -40.637  23.261  1.00  0.00     0.000 C 
ATOM   1896  C   ILE   257      13.406 -42.499  21.251  1.00  0.00    -0.000 C 
ATOM   1897  C   ILE   257      13.908 -41.298  23.450  1.00  0.00    -0.000 C 
ATOM   1898  C   ILE   257      13.744 -42.666  22.755  1.00  0.00     0.008 C 
ATOM   1899  O   ILE   257      13.598 -45.665  22.929  1.00  0.00     0.158 OA
ATOM   1900  C   ILE   257      12.626 -44.932  22.815  1.00  0.00    -0.286 C 
ATOM   1901  C   ILE   257      12.671 -43.559  23.458  1.00  0.00    -0.102 C 
ATOM   1902  N   ILE   257      12.976 -43.737  24.886  1.00  0.00     0.222 N 
ATOM   1903  C   ILE   258       9.996 -48.607  20.777  1.00  0.00    -0.000 C 
ATOM   1904  C   ILE   258       9.856 -47.640  23.162  1.00  0.00    -0.000 C 
ATOM   1905  C   ILE   258      10.085 -47.337  21.666  1.00  0.00     0.008 C 
ATOM   1906  O   ILE   258      10.786 -45.255  19.516  1.00  0.00     0.158 OA
ATOM   1907  C   ILE   258      11.522 -46.134  19.951  1.00  0.00    -0.286 C 
ATOM   1908  C   ILE   258      11.406 -46.544  21.413  1.00  0.00    -0.102 C 
ATOM   1909  N   ILE   258      11.514 -45.290  22.162  1.00  0.00     0.222 N 
ATOM   1910  C   ILE   258      10.845 -48.404  23.858  1.00  0.00     0.000 C 
ATOM   1911  C   TYR   259      16.463 -43.707  19.710  1.00  0.00    -0.177 C 
ATOM   1912  C   TYR   259      16.116 -43.417  18.398  1.00  0.00     0.012 C 
ATOM   1913  O   TYR   259      17.130 -42.777  20.464  1.00  0.00     0.153 OA
ATOM   1914  C   TYR   259      11.778 -47.327  16.872  1.00  0.00    -0.286 C 
ATOM   1915  C   TYR   259      12.616 -46.450  17.787  1.00  0.00    -0.102 C 
ATOM   1916  O   TYR   259      11.970 -48.543  16.838  1.00  0.00     0.158 OA
ATOM   1917  C   TYR   259      15.397 -44.350  17.650  1.00  0.00    -0.000 C 
ATOM   1918  C   TYR   259      16.067 -44.904  20.288  1.00  0.00     0.012 C 
ATOM   1919  C   TYR   259      14.122 -46.526  17.423  1.00  0.00     0.008 C 
ATOM   1920  C   TYR   259      14.966 -45.553  18.215  1.00  0.00    -0.000 C 
ATOM   1921  C   TYR   259      15.321 -45.821  19.538  1.00  0.00    -0.000 C 
ATOM   1922  N   TYR   259      12.405 -46.796  19.194  1.00  0.00     0.222 N 
ATOM   1923  N   ALA   260      10.812 -46.712  16.166  1.00  0.00     0.222 N 
ATOM   1924  C   ALA   260       9.977 -47.400  15.183  1.00  0.00    -0.102 C 
ATOM   1925  C   ALA   260      10.456 -46.842  13.843  1.00  0.00    -0.286 C 
ATOM   1926  O   ALA   260       9.794 -46.016  13.232  1.00  0.00     0.158 OA
ATOM   1927  C   ALA   260       8.503 -47.084  15.417  1.00  0.00     0.007 C 
ATOM   1928  N   ASP   261      11.659 -47.243  13.439  1.00  0.00     0.222 N 
ATOM   1929  C   ASP   261      12.344 -46.690  12.270  1.00  0.00    -0.103 C 
ATOM   1930  C   ASP   261      12.933 -47.757  11.336  1.00  0.00    -0.286 C 
ATOM   1931  O   ASP   261      13.812 -47.437  10.538  1.00  0.00     0.158 OA
ATOM   1932  C   ASP   261      13.481 -45.765  12.792  1.00  0.00     0.032 C 
ATOM   1933  C   ASP   261      14.633 -46.510  13.461  1.00  0.00    -0.347 C 
ATOM   1934  O   ASP   261      14.418 -47.667  13.912  1.00  0.00     0.162 OA
ATOM   1935  O   ASP   261      15.759 -45.951  13.505  1.00  0.00     0.162 OA
ATOM   1936  N   GLY   262      12.493 -49.011  11.499  1.00  0.00     0.222 N 
ATOM   1937  C   GLY   262      12.958 -50.164  10.729  1.00  0.00    -0.094 C 
ATOM   1938  C   GLY   262      14.359 -50.589  11.134  1.00  0.00    -0.287 C 
ATOM   1939  O   GLY   262      14.985 -51.401  10.456  1.00  0.00     0.158 OA
ATOM   1940  N   GLY   263      14.832 -50.059  12.250  1.00  0.00     0.222 N 
ATOM   1941  C   GLY   263      16.186 -50.287  12.763  1.00  0.00    -0.094 C 
ATOM   1942  O   GLY   263      18.449 -49.702  12.271  1.00  0.00     0.158 OA
ATOM   1943  C   GLY   263      17.257 -49.453  12.079  1.00  0.00    -0.287 C 
ATOM   1944  C   ALA   264      17.050 -46.573   9.711  1.00  0.00     0.007 C 
ATOM   1945  C   ALA   264      17.801 -47.583  10.543  1.00  0.00    -0.102 C 
ATOM   1946  C   ALA   264      18.838 -46.873  11.412  1.00  0.00    -0.286 C 
ATOM   1947  O   ALA   264      20.001 -46.778  11.010  1.00  0.00     0.158 OA
ATOM   1948  N   ALA   264      16.854 -48.432  11.291  1.00  0.00     0.222 N 
ATOM   1949  O   HIS   265      21.441 -46.063  14.642  1.00  0.00     0.158 OA
ATOM   1950  N   HIS   265      18.453 -46.428  12.625  1.00  0.00     0.222 N 
ATOM   1951  C   HIS   265      19.401 -45.703  13.486  1.00  0.00    -0.102 C 
ATOM   1952  N   HIS   265      18.340 -46.566  17.834  1.00  0.00     0.218 N 
ATOM   1953  C   HIS   265      18.675 -44.898  14.589  1.00  0.00     0.016 C 
ATOM   1954  C   HIS   265      18.392 -45.697  15.825  1.00  0.00    -0.114 C 
ATOM   1955  C   HIS   265      20.496 -46.596  14.081  1.00  0.00    -0.286 C 
ATOM   1956  C   HIS   265      18.961 -45.622  17.050  1.00  0.00    -0.106 C 
ATOM   1957  N   HIS   265      17.427 -46.699  15.839  1.00  0.00     0.219 N 
ATOM   1958  C   HIS   265      17.451 -47.197  17.070  1.00  0.00    -0.225 C 
ATOM   1959  C   THR   266      22.408 -49.321  13.479  1.00  0.00    -0.287 C 
ATOM   1960  C   THR   266      21.358 -48.897  14.515  1.00  0.00    -0.089 C 
ATOM   1961  N   THR   266      20.378 -47.941  13.953  1.00  0.00     0.222 N 
ATOM   1962  O   THR   266      23.265 -50.172  13.763  1.00  0.00     0.158 OA
ATOM   1963  C   THR   266      19.381 -49.808  15.855  1.00  0.00     0.012 C 
ATOM   1964  O   THR   266      20.229 -50.968  13.909  1.00  0.00     0.152 OA
ATOM   1965  C   THR   266      20.611 -50.158  15.026  1.00  0.00    -0.169 C 
ATOM   1966  O   GLN   267      23.139 -52.623  10.383  1.00  0.00     0.158 OA
ATOM   1967  N   GLN   267      22.303 -48.768  12.261  1.00  0.00     0.222 N 
ATOM   1968  C   GLN   267      21.392 -51.018  10.606  1.00  0.00     0.020 C 
ATOM   1969  C   GLN   267      22.256 -49.854  10.060  1.00  0.00     0.007 C 
ATOM   1970  C   GLN   267      23.133 -49.148  11.125  1.00  0.00    -0.102 C 
ATOM   1971  C   GLN   267      23.811 -47.926  10.517  1.00  0.00    -0.286 C 
ATOM   1972  O   GLN   267      23.188 -46.870  10.422  1.00  0.00     0.158 OA
ATOM   1973  C   GLN   267      22.200 -52.221  11.049  1.00  0.00    -0.286 C 
ATOM   1974  N   GLN   267      21.863 -52.815  12.195  1.00  0.00     0.108 N 
ATOM   1975  C   LEU   268      29.516 -45.686  10.036  1.00  0.00     0.000 C 
ATOM   1976  C   LEU   268      27.527 -44.323   9.573  1.00  0.00     0.000 C 
ATOM   1977  C   LEU   268      27.252 -46.814   9.995  1.00  0.00     0.008 C 
ATOM   1978  C   LEU   268      25.538 -46.782   8.079  1.00  0.00    -0.286 C 
ATOM   1979  C   LEU   268      25.768 -46.875   9.577  1.00  0.00    -0.102 C 
ATOM   1980  C   LEU   268      28.139 -45.696   9.398  1.00  0.00    -0.000 C 
ATOM   1981  O   LEU   268      25.145 -45.720   7.576  1.00  0.00     0.158 OA
ATOM   1982  N   LEU   268      25.077 -48.049  10.130  1.00  0.00     0.222 N 
ATOM   1983  C   LEU   269      25.481 -48.029   5.951  1.00  0.00    -0.098 C 
ATOM   1984  N   LEU   269      25.743 -47.894   7.380  1.00  0.00     0.222 N 
ATOM   1985  C   LEU   269      26.802 -47.999   5.167  1.00  0.00     0.008 C 
ATOM   1986  O   LEU   269      24.723 -50.208   6.676  1.00  0.00     0.162 OA
ATOM   1987  C   LEU   269      24.744 -49.373   5.729  1.00  0.00    -0.338 C 
ATOM   1988  O   LEU   269      24.193 -49.584   4.622  1.00  0.00     0.162 OA
ATOM   1989  C   LEU   269      27.706 -45.651   5.314  1.00  0.00     0.000 C 
ATOM   1990  C   LEU   269      27.109 -46.715   4.402  1.00  0.00    -0.000 C 
ATOM   1991  C   LEU   269      28.053 -46.993   3.251  1.00  0.00     0.000 C 
ATOM   1992  O   NAD   301       7.268 -33.996  14.497  1.00  0.00     0.152 OA
ATOM   1993  C   NAD   301       6.090 -34.754  14.253  1.00  0.00    -0.143 C 
ATOM   1994  O   NAD   301       5.500 -34.374  16.607  1.00  0.00     0.152 OA
ATOM   1995  C   NAD   301       4.983 -34.481  15.280  1.00  0.00    -0.152 C 
ATOM   1996  O   NAD   301       5.059 -36.758  14.661  1.00  0.00     0.340 OA
ATOM   1997  C   NAD   301       4.152 -35.759  15.192  1.00  0.00    -0.167 C 
ATOM   1998  C   NAD   301       2.893 -35.699  14.349  1.00  0.00    -0.165 C 
ATOM   1999  C   NAD   301       8.149 -37.871  13.981  1.00  0.00    -0.124 C 
ATOM   2000  C   NAD   301       8.882 -38.614  13.071  1.00  0.00     0.008 C 
ATOM   2001  C   NAD   301       8.629 -38.491  11.709  1.00  0.00    -0.001 C 
ATOM   2002  N   NAD   301       6.145 -37.086   9.374  1.00  0.00     0.108 N 
ATOM   2003  O   NAD   301       8.138 -38.049   8.985  1.00  0.00     0.158 OA
ATOM   2004  C   NAD   301       7.301 -37.641   9.774  1.00  0.00    -0.286 C 
ATOM   2005  O   NAD   301       1.733 -36.745  11.835  1.00  0.00     0.154 OA
ATOM   2006  O   NAD   301       3.135 -35.034  13.087  1.00  0.00     0.334 OA
ATOM   2007  O   NAD   301       3.999 -36.016  10.969  1.00  0.00     0.154 OA
ATOM   2008  P   NAD   301       2.743 -35.676  11.679  1.00  0.00    -0.644 P 
ATOM   2009  O   NAD   301       2.143 -34.372  10.963  1.00  0.00     0.335 OA
ATOM   2010  C   NAD   301      -0.894 -28.220  17.159  1.00  0.00    -0.245 C 
ATOM   2011  N   NAD   301      -1.700 -28.832  18.040  1.00  0.00     0.226 N 
ATOM   2012  C   NAD   301       7.615 -37.648  11.247  1.00  0.00     0.029 C 
ATOM   2013  C   NAD   301       6.874 -36.925  12.167  1.00  0.00    -0.124 C 
ATOM   2014  N   NAD   301       7.179 -37.040  13.560  1.00  0.00     0.357 N 
ATOM   2015  C   NAD   301       6.360 -36.243  14.575  1.00  0.00    -0.307 C 
ATOM   2016  N   NAD   301      -0.446 -24.897  18.564  1.00  0.00     0.104 N 
ATOM   2017  C   NAD   301      -1.997 -28.021  19.059  1.00  0.00    -0.226 C 
ATOM   2018  N   NAD   301      -1.615 -26.756  19.260  1.00  0.00     0.226 N 
ATOM   2019  C   NAD   301      -0.404 -26.930  17.243  1.00  0.00    -0.079 C 
ATOM   2020  O   NAD   301       0.856 -32.276  10.369  1.00  0.00     0.154 OA
ATOM   2021  C   NAD   301      -0.805 -26.167  18.358  1.00  0.00    -0.225 C 
ATOM   2022  O   NAD   301      -0.225 -34.576  10.437  1.00  0.00     0.154 OA
ATOM   2023  N   NAD   301       0.413 -26.645  16.157  1.00  0.00     0.218 N 
ATOM   2024  C   NAD   301       0.386 -27.749  15.450  1.00  0.00    -0.244 C 
ATOM   2025  N   NAD   301      -0.396 -28.738  15.988  1.00  0.00     0.372 N 
ATOM   2026  P   NAD   301       0.745 -33.588  11.045  1.00  0.00    -0.644 P 
ATOM   2027  C   NAD   301      -0.808 -29.999  15.383  1.00  0.00    -0.308 C 
ATOM   2028  C   NAD   301      -1.460 -29.886  14.012  1.00  0.00    -0.143 C 
ATOM   2029  O   NAD   301      -2.816 -29.473  14.119  1.00  0.00     0.152 OA
ATOM   2030  O   NAD   301      -2.527 -32.058  13.880  1.00  0.00     0.152 OA
ATOM   2031  O   NAD   301       0.306 -30.836  15.178  1.00  0.00     0.340 OA
ATOM   2032  C   NAD   301      -1.355 -31.335  13.532  1.00  0.00    -0.152 C 
ATOM   2033  C   NAD   301      -0.140 -31.889  14.293  1.00  0.00    -0.167 C 
ATOM   2034  C   NAD   301       0.994 -32.363  13.419  1.00  0.00    -0.165 C 
ATOM   2035  O   NAD   301       0.468 -33.435  12.604  1.00  0.00     0.334 OA