REMARK  3 active torsions:
REMARK  status: ('A' for Active; 'I' for Inactive)
REMARK    1  A    between atoms: O1_4  and  C1_6 
REMARK    2  A    between atoms: O1_4  and  C2_7 
REMARK    3  A    between atoms: O2_5  and  C3_8 
ROOT
HETATM    1 CL2  UNL     1       4.996  -1.299   1.209  1.00  0.00    -0.084 Cl
HETATM    2  C1  UNL     1       1.158   0.591  -0.222  1.00  0.00     0.109 A 
HETATM    3  C3  UNL     1       2.158   0.264  -1.138  1.00  0.00     0.101 A 
HETATM    4  C4  UNL     1       1.345   0.334   1.136  1.00  0.00     0.042 A 
HETATM    5  C7  UNL     1       3.345  -0.321  -0.696  1.00  0.00     0.063 A 
HETATM    6  C8  UNL     1       2.532  -0.250   1.578  1.00  0.00     0.027 A 
HETATM    7  C11 UNL     1       3.532  -0.578   0.662  1.00  0.00     0.036 A 
ENDROOT
BRANCH   2   8
HETATM    8  O1  UNL     1      -0.004   1.164  -0.641  1.00  0.00    -0.306 OA
BRANCH   8   9
HETATM    9  C2  UNL     1      -1.183   0.485  -0.384  1.00  0.00     0.098 A 
HETATM   10  C5  UNL     1      -2.175   1.068   0.386  1.00  0.00     0.069 A 
HETATM   11 CL1  UNL     1      -1.993   2.648   1.055  1.00  0.00    -0.081 Cl
HETATM   12  C9  UNL     1      -3.354   0.362   0.628  1.00  0.00     0.050 A 
HETATM   13  C12 UNL     1      -3.522  -0.917   0.096  1.00  0.00     0.035 A 
HETATM   14 CL3  UNL     1      -4.975  -1.790   0.395  1.00  0.00    -0.084 Cl
HETATM   15  C10 UNL     1      -2.513  -1.488  -0.678  1.00  0.00     0.026 A 
HETATM   16  C6  UNL     1      -1.335  -0.782  -0.920  1.00  0.00     0.041 A 
ENDBRANCH   8   9
ENDBRANCH   2   8
BRANCH   3  17
HETATM   17  O2  UNL     1       1.987   0.510  -2.467  1.00  0.00    -0.358 OA
HETATM   18  H1  UNL     1       2.702   0.274  -3.110  1.00  0.00     0.217 HD
ENDBRANCH   3  17
TORSDOF 3
