REMARK  8 active torsions:
REMARK  status: ('A' for Active; 'I' for Inactive)
REMARK    1  A    between atoms: C2_2  and  O1_8 
REMARK    2  A    between atoms: C12_7  and  C13_18 
REMARK    3  A    between atoms: O1_8  and  C1_9 
REMARK    4  A    between atoms: C3_10  and  O2_16 
REMARK    5  A    between atoms: C13_18  and  C14_19 
REMARK    6  A    between atoms: C14_19  and  C15_20 
REMARK    7  A    between atoms: C15_20  and  C16_21 
REMARK    8  A    between atoms: C16_21  and  N1_22 
ROOT
HETATM    1 CL1  UNK   900      -2.681  -2.990  -0.227  1.00  0.00    -0.081 Cl
HETATM    2  C2  UNK   900      -2.780  -0.267  -0.033  1.00  0.00     0.098 A 
HETATM    3  C5  UNK   900      -1.978  -1.415  -0.108  1.00  0.00     0.068 A 
HETATM    4  C6  UNK   900      -2.178   0.992   0.027  1.00  0.00     0.039 A 
HETATM    5  C9  UNK   900      -0.587  -1.294  -0.096  1.00  0.00     0.033 A 
HETATM    6  C10 UNK   900      -0.788   1.109   0.039  1.00  0.00     0.010 A 
HETATM    7  C12 UNK   900       0.014  -0.034  -0.020  1.00  0.00    -0.056 A 
ENDROOT
BRANCH   2   8
HETATM    8  O1  UNK   900      -4.154  -0.343  -0.054  1.00  0.00    -0.306 OA
BRANCH   8   9
HETATM    9  C1  UNK   900      -4.829  -0.797   1.061  1.00  0.00     0.109 A 
HETATM   10  C4  UNK   900      -4.452  -0.425   2.361  1.00  0.00     0.042 A 
HETATM   11  C8  UNK   900      -5.168  -0.889   3.465  1.00  0.00     0.027 A 
HETATM   12  C11 UNK   900      -6.270  -1.723   3.281  1.00  0.00     0.036 A 
HETATM   13 CL2  UNK   900      -7.155  -2.297   4.647  1.00  0.00    -0.084 Cl
HETATM   14  C7  UNK   900      -6.659  -2.089   1.993  1.00  0.00     0.063 A 
HETATM   15  C3  UNK   900      -5.944  -1.627   0.887  1.00  0.00     0.101 A 
BRANCH  15  16
HETATM   16  O2  UNK   900      -6.344  -1.999  -0.371  1.00  0.00    -0.358 OA
HETATM   17  H17 UNK   900      -5.778  -1.641  -1.060  1.00  0.00     0.217 HD
ENDBRANCH  15  16
ENDBRANCH   8   9
ENDBRANCH   2   8
BRANCH   7  18
HETATM   18  C13 UNK   900       1.530   0.091   0.001  1.00  0.00     0.038 C 
BRANCH  18  19
HETATM   19  C14 UNK   900       2.113  -0.011   1.422  1.00  0.00     0.006 C 
BRANCH  19  20
HETATM   20  C15 UNK   900       3.645   0.120   1.453  1.00  0.00     0.027 C 
BRANCH  20  21
HETATM   21  C16 UNK   900       4.212   0.001   2.877  1.00  0.00     0.229 C 
BRANCH  21  22
HETATM   22  N1  UNK   900       5.737   0.152   2.848  1.00  0.00    -0.079 N 
HETATM   23  H15 UNK   900       6.113   0.072   3.782  1.00  0.00     0.274 HD
HETATM   24  H16 UNK   900       6.147  -0.567   2.269  1.00  0.00     0.274 HD
HETATM   25  H18 UNK   900       5.989   1.056   2.473  1.00  0.00     0.274 HD
ENDBRANCH  21  22
ENDBRANCH  20  21
ENDBRANCH  19  20
ENDBRANCH  18  19
ENDBRANCH   7  18
TORSDOF 8
