REMARK  3 active torsions:
REMARK  status: ('A' for Active; 'I' for Inactive)
REMARK    1  A    between atoms: C3_3  and  O2_17 
REMARK    2  A    between atoms: C4_4  and  O1_13 
REMARK    3  A    between atoms: C10_10  and  O1_13 
ROOT
HETATM    1  C1  UNL     1      -0.065   1.006   3.050  1.00  0.00     0.063 A 
HETATM    2  C2  UNL     1      -0.327  -0.213   3.647  1.00  0.00     0.036 A 
HETATM    3  C3  UNL     1       0.585   1.053   1.827  1.00  0.00     0.101 A 
HETATM    4  C4  UNL     1       0.969  -0.128   1.201  1.00  0.00     0.109 A 
HETATM    5  C5  UNL     1       0.707  -1.347   1.807  1.00  0.00     0.042 A 
HETATM    6  C6  UNL     1       0.058  -1.387   3.026  1.00  0.00     0.027 A 
HETATM    7 CL1  UNL     1      -1.142  -0.270   5.179  1.00  0.00    -0.084 Cl
ENDROOT
BRANCH   4   8
HETATM    8  O1  UNL     1       1.607  -0.087   0.001  1.00  0.00    -0.306 OA
BRANCH   8   9
HETATM    9  C10 UNL     1       0.643  -0.063  -0.956  1.00  0.00     0.098 A 
HETATM   10  C9  UNL     1       0.992  -0.151  -2.297  1.00  0.00     0.069 A 
HETATM   11  C8  UNL     1       0.009  -0.132  -3.268  1.00  0.00     0.050 A 
HETATM   12 CL3  UNL     1       2.661  -0.298  -2.752  1.00  0.00    -0.081 Cl
HETATM   13  C7  UNL     1      -1.320  -0.015  -2.905  1.00  0.00     0.035 A 
HETATM   14  C11 UNL     1      -1.670   0.078  -1.569  1.00  0.00     0.026 A 
HETATM   15 CL2  UNL     1      -2.553   0.015  -4.127  1.00  0.00    -0.084 Cl
HETATM   16  C12 UNL     1      -0.691   0.054  -0.595  1.00  0.00     0.041 A 
ENDBRANCH   8   9
ENDBRANCH   4   8
BRANCH   3  17
HETATM   17  O2  UNL     1       0.843   2.251   1.238  1.00  0.00    -0.358 OA
HETATM   18  H7  UNL     1       1.307   2.283   0.364  1.00  0.00     0.217 HD
ENDBRANCH   3  17
TORSDOF 3
